LAMMPS (24 Apr 2013)
WARNING: OMP_NUM_THREADS environment is not set. (../comm.cpp:100)
  using 1 OpenMP thread(s) per MPI task
# ----------------- Init Section -----------------
units           real
atom_style      full
boundary	p p p
kspace_style	pppm 1.0e-4

# ----------------- Atom Definition Section -----------------
read_restart	confout-5.data
  orthogonal box = (14.9505 2.8423 2.8423) to (248.05 47.1577 47.1577)
  1 by 1 by 1 MPI processor grid
  44200 atoms
  29498 bonds
  14700 angles
  2 = max # of 1-2 neighbors
  2 = max # of 1-3 neighbors
  4 = max # of 1-4 neighbors
  6 = max # of special neighbors

# ----------------- Settings Section -----------------------

group 		spc		type	1 2
44100 atoms in group spc
group		p1_end_atom	id 	44150
1 atoms in group p1_end_atom
group		p2_end_atom	id 	44200
1 atoms in group p2_end_atom

# ----------------- Run Section -----------------
# Write initial structure out
dump            icrd all custom 5 system-6.lammpstrj id mol type x y z ix iy iz
dump_modify     icrd sort id
run             1
WARNING: No fixes defined, atoms won't move (../verlet.cpp:54)
PPPM initialization ...
  G vector (1/distance) = 0.263359
  grid = 90 25 25
  stencil order = 5
  estimated absolute RMS force accuracy = 0.0400171
  estimated relative force accuracy = 0.00012051
  using double precision FFTs
  3d grid and FFT values/proc = 97280 56250
Memory usage per processor = 127.288 Mbytes
Step Temp E_pair E_mol TotEng Press 
  550005     199.0622   -145384.08    27.573045    -119130.3    24512.494 
  550006     199.0622   -145384.08    27.573045    -119130.3    24512.494 
Loop time of 0.492486 on 1 procs (1 MPI x 1 OpenMP) for 1 steps with 44200 atoms

Pair  time (%) = 0.451325 (91.6422)
Bond  time (%) = 0.00368905 (0.749067)
Kspce time (%) = 0.0362499 (7.36059)
Neigh time (%) = 0 (0)
Comm  time (%) = 0.000734091 (0.149058)
Outpt time (%) = 0.000225067 (0.0457002)
Other time (%) = 0.000262976 (0.0533976)

FFT time (% of Kspce) = 0.00832715 (22.9715)
FFT Gflps 3d (1d only) = 1.47767 2.91642

Nlocal:    44200 ave 44200 max 44200 min
Histogram: 1 0 0 0 0 0 0 0 0 0
Nghost:    70326 ave 70326 max 70326 min
Histogram: 1 0 0 0 0 0 0 0 0 0
Neighs:    1.46837e+07 ave 1.46837e+07 max 1.46837e+07 min
Histogram: 1 0 0 0 0 0 0 0 0 0

Total # of neighbors = 14683677
Ave neighs/atom = 332.21
Ave special neighs/atom = 2.00851
Neighbor list builds = 0
Dangerous builds = 0

# Reset the timestep
undump          icrd

# Timestep and Neighbour searching
timestep	2.0
neighbor        2.0 bin
neigh_modify	delay 4 every 1 check yes

# Fixes
fix 		pull p1_end_atom addforce  1.0 0.0 0.0
fix 		pull p2_end_atom addforce -1.0 0.0 0.0
WARNING: Replacing a fix, but new group != old group (../modify.cpp:657)
fix 		shake spc shake 0.0001 10 0 b 1 a 1
  0 = # of size 2 clusters
  0 = # of size 3 clusters
  0 = # of size 4 clusters
  14700 = # of frozen angles
fix   		npt all npt temp 300.0 300.0 100.0 iso 1.0 1.0 1000.0

# Initial velocity
#velocity		all create 300 432567 dist uniform

# Write out thermodynamic information
thermo_style    custom step temp press vol pe ke evdwl ecoul epair
thermo	        250

# Write out trajectory
dump            cxtc all xtc 250 traj-6.xtc

# Write out velocity
#dump 		1 all custom 1 vel_npt.txt vx vy vz

# Checkpoint files
restart         5000 state_cpt-*.data

# Final run command
run             100000
PPPM initialization ...
  G vector (1/distance) = 0.263359
  grid = 90 25 25
  stencil order = 5
  estimated absolute RMS force accuracy = 0.0400171
  estimated relative force accuracy = 0.00012051
  using double precision FFTs
  3d grid and FFT values/proc = 97280 56250
Memory usage per processor = 125.955 Mbytes
Step Temp Press Volume PotEng KinEng E_vdwl E_coul E_pair 
  550006    298.25927    130.05631    457772.84   -145356.51     26226.21    24973.624    560700.96   -145384.08 
  550250    298.54048   -75.800945    459808.19   -145260.25    26250.938    24697.748    561020.45   -145287.66 
  550500    298.28674    78.596302    459291.36   -145560.58    26228.626    25032.411    560416.79   -145587.46 
  550750    298.26802    46.982595    459849.13   -145649.02     26226.98    25111.195    560262.74   -145676.39 
  551000    297.63817    6.8940755    458898.37    -145586.2    26171.597    24927.308    560481.66   -145610.87 
  551250    300.53477    61.437226    458640.82   -145749.76    26426.298    25083.178    560182.51   -145780.13 
  551500    297.40138   -70.280373    459880.32   -145507.91    26150.776    24719.012    560797.42   -145533.64 
  551750    300.41273    170.30108    459298.03   -145431.91    26415.566    25106.066    560479.93   -145460.94 
  552000    300.49608    52.151871     459323.5   -145277.34    26422.895    24838.165    560893.42   -145306.32 
  552250    300.23312   -86.950601    460354.26   -145533.66    26399.773    24827.452    560649.55   -145562.04 
  552500    298.31561    129.05468    459595.62   -145484.52    26231.165    25095.846    560430.41   -145512.67 
  552750    300.38244    28.286985    459501.27   -145753.49    26412.903    24977.553    560281.37   -145785.28 
  553000    299.90914    145.39404     459017.5   -145336.53    26371.286    25035.666    560639.38   -145362.79 
  553250    298.68554    42.043916    458437.62   -145329.34    26263.693    24820.024     560869.9   -145362.77 
  553500    299.56606   -48.543707    458382.41   -145728.22    26341.118    24798.204    560490.47   -145752.94 
  553750    300.31087    -37.96442    458975.28   -145309.79     26406.61    24623.272    561073.09   -145339.84 
  554000     300.5763    1.7585347    457941.32   -145350.77     26429.95     24748.03    560890.48   -145380.44 
  554250    298.91922   -31.690249    459433.33   -145423.62    26284.241     24731.58    560856.69   -145450.68 
  554500    299.10003    45.355548     460112.2   -145479.92     26300.14    24934.535    560609.69   -145504.43 
  554750    300.62789    154.60009    459000.56   -145710.42    26434.486     25245.04    560048.27   -145738.05 
  555000    302.36452    14.611623    459040.06   -145502.75    26587.189    24837.108    560671.31   -145538.55 
  555250    299.30613   -131.15645    460245.81   -145476.86    26318.262    24717.338    560812.36   -145510.39 
  555500    299.74816    149.02059    457703.78   -145529.55    26357.131    25086.797    560374.85   -145555.03 
  555750     302.9578    216.43203    459354.29   -145510.67    26639.357    25285.898    560199.79   -145536.29 
  556000     300.4642   -186.93476    460717.13   -145433.08    26420.093    24574.573    560988.64   -145464.53 
  556250    299.13868    71.265138    459612.99   -145552.03    26303.538    24989.492    560468.46    -145585.3 
  556500    301.50923   -35.860385    458302.48   -145457.66    26511.983    24727.085    560826.13   -145490.05 
  556750    300.29995   -131.17007    458287.74   -145643.62     26405.65    24584.365    560774.76    -145674.7 
  557000    300.25895   -73.115322    459634.67   -145501.64    26402.044    24717.704    560793.74   -145526.47 
  557250    301.28983    365.93672    458229.37   -145661.31    26492.691    25596.324    559730.07   -145691.64 
  557500    300.95857   -13.274309       461433   -145305.91    26463.562    24860.521    560841.37   -145334.13 
  557750    300.12889    25.062035    459128.53   -145698.85    26390.608    24927.354    560387.83   -145728.85 
  558000    301.07764    14.241251    458585.07   -145745.72    26474.033    24917.881    560351.31    -145781.9 
  558250    297.52626   -32.531582    461573.05   -145333.75    26161.757    24949.078    560720.14   -145364.51 
  558500    303.96672    198.92951    458409.68   -145717.48    26728.072    25260.936    560014.96   -145743.42 
  558750    300.03434    16.177132    459520.41    -145541.3    26382.295    24875.699    560573.37   -145572.05 
  559000    298.27915    133.17012    458637.23   -145886.13    26227.959    25208.384    559923.34   -145918.31 
  559250    301.90527    -97.75518    459344.86   -145381.82    26546.807    24649.673    560974.12   -145408.96 
  559500    300.96132    83.378809    458716.63   -145466.06    26463.804    25001.488    560543.21   -145491.86 
  559750    300.90939   -94.705488    459681.18   -145596.95    26459.238    24667.611    560739.53   -145632.12 
  560000    300.63973    70.164851    458472.84   -145682.27    26435.527    25063.113    560272.45    -145712.5 
  560250    300.50495    3.1288815    458858.66   -145586.15    26423.675     24861.62    560539.76   -145620.93 
  560500    300.24684    37.988338    458765.09   -145629.22     26400.98     24972.95    560412.52   -145661.58 
  560750    298.00421     111.0176    459015.44   -145562.87    26203.783    25129.663    560305.45   -145595.31 
  561000    297.49809    207.33408    457034.97   -145815.56     26159.28    25284.846     559904.9   -145847.06 
  561250    301.52951   -12.853087       459747   -145428.15    26513.766    24768.328    560809.08   -145463.25 
  561500    299.86694    40.160131    460289.51   -145666.75    26367.575    25115.112       560230   -145697.39 
  561750    302.73898   -150.98618    459850.77   -145530.08    26620.116    24566.626    560906.54   -145567.16 
  562000     301.3239     26.28504    458994.33   -145483.88    26495.686    24779.551    560758.44   -145514.36 
  562250    298.11718    220.17601    458637.95   -145775.31    26213.716    25392.675    559831.33   -145804.49 
  562500    299.16228   -67.605552    461016.11   -145372.72    26305.614    24770.687    560854.35   -145407.46 
  562750    299.68434    75.983056    459758.31   -145511.56    26351.518    25014.288     560467.3   -145544.91 
  563000    300.55901    133.68539    459412.54   -145618.32    26428.429    25196.666    560187.38   -145653.57 
  563250    300.27831   -89.351446    459199.61   -145432.74    26403.746    24674.712    560887.16   -145468.73 
  563500    301.09366   -153.19989    459683.36   -145346.57    26475.441    24503.013    561149.81    -145386.9 
  563750     302.7807   -31.574105    459367.78    -145889.2    26623.784    24896.126     560207.6   -145924.41 
  564000    299.07227   -36.161859    459788.08   -145594.44    26297.699    24840.154    560561.71   -145637.44 
  564250    300.69493   -13.675474    458387.53   -145851.02     26440.38    24940.138     560194.5   -145886.34 
  564500    301.56887   -108.02394    460195.19   -145699.88    26517.227    24754.853    560550.41   -145729.51 
  564750    300.01651   -38.024025    459103.48    -145865.5    26380.727    24858.161     560300.1   -145904.05 
  565000    301.21184    70.833693    458280.74   -146169.56    26485.833    25241.695    559603.39   -146202.33 
  565250    299.51352    -36.86449    459255.65   -145351.83    26336.499     24731.55    560912.05   -145387.01 
  565500    300.36527    19.230102    459127.93   -145501.51    26411.393    24786.314    560709.11   -145538.69 
  565750     298.7637   -39.325221    459348.31    -145270.7    26270.566    24727.633    560979.83   -145309.78 
  566000    298.94363    -278.8165    459058.51   -145572.73    26286.387    24321.674    561118.62   -145609.71 
  566250    300.61076    120.22884    457629.31   -145439.82     26432.98    24933.415    560632.51   -145475.93 
  566500     303.8507    113.27396    458298.56   -145682.05     26717.87    25049.806    560267.24   -145723.95 
  566750    300.32146    223.25013    458865.74   -145562.81    26407.541      25285.8     560149.7   -145596.91 
  567000    301.88633   -98.754995    459162.83   -145901.08    26545.141    24776.347    560319.23   -145934.89 
  567250    299.82468    58.285527    457595.93   -145890.57    26363.859    24991.035    560117.84   -145930.74 
  567500    298.15844   -55.769406    459163.75   -145293.31    26217.345    24691.851    561015.59    -145326.5 
  567750    301.59997    -78.17212    458838.86   -145753.54    26519.961    24770.847    560488.95   -145796.18 
  568000    300.85383   -67.176458    458416.38   -145536.14    26454.353    24604.924     560859.9   -145566.31 
  568250    299.84947    76.892178     459388.6   -145485.63    26366.039     25017.78    560504.23   -145525.94 
  568500    299.77224   -104.83741    458702.64   -145737.69    26359.247    24676.092    560576.95   -145783.66 
  568750    301.56042    -125.0271    460296.13   -145693.58    26516.484    24704.715    560588.33   -145730.42 
  569000     299.6485     122.8613    459516.54   -145631.31    26348.367    25153.518    560243.81   -145660.66 
  569250    299.06483   -8.0881321    458383.56   -145904.41    26297.044    24970.468    560139.16   -145937.46 
  569500    298.66374   -74.357806    459705.34   -145402.88    26261.777    24770.998    560815.42   -145436.07 
  569750    298.94766     89.56425    457411.66   -146055.79    26286.741    25138.292    559822.36   -146088.54 
  570000    297.49071   -92.825461    459613.41   -145652.87    26158.631     24828.79    560516.32   -145688.36 
  570250    298.09099   -26.441662    458301.54   -145735.84    26211.414    24921.588    560334.16   -145775.56 
  570500    298.74473    176.66388    458202.15   -145765.67    26268.897    25268.919    559993.22   -145793.31 
  570750    301.71396    103.73469    457935.13   -145561.88    26529.985    24980.085    560461.23   -145601.01 
  571000    302.89902    50.968814    456996.78   -145507.99    26634.188    24794.308    560709.17   -145538.43 
  571250    297.01196   -70.782018    459007.85   -145353.38    26116.534    24667.444    560992.86   -145387.39 
  571500     300.1437    23.912605    457888.04   -145779.82    26391.911    24919.587    560307.42   -145808.62 
  571750    298.92865    7.1750375    459447.77   -145569.41     26285.07    24886.208    560535.86   -145613.97 
  572000    299.16369    55.566673       460898   -145634.25    26305.737    25064.441    560323.44   -145658.25 
  572250    298.57339    33.924547    460459.85   -145695.28    26253.832    25080.224    560212.58   -145726.61 
  572500    299.38841    124.74107    458968.08   -146193.03    26325.497    25424.979     559368.7   -146230.26 
  572750    300.84827   -32.792409    460886.18   -145861.77    26453.864    25127.752    560012.15   -145897.79 
  573000    300.10585   -12.648019    460235.85   -145467.03    26388.582    24891.384    560633.32   -145502.18 
  573250    297.14182    67.290312     459337.3   -145545.52    26127.952    25019.495    560461.08   -145572.57 
  573500    297.80502   -130.93931    459882.67   -145621.47    26186.268    24650.419    560734.28    -145653.5 
  573750    299.94969   -98.225004    461194.08   -145811.51    26374.851     24902.82    560302.88   -145845.07 
  574000    302.12877   -30.518523    460671.03    -145633.5    26566.459    24948.768    560399.31   -145668.67 
  574250     301.5466   -44.268491    459738.29   -145523.69    26515.269    24803.482    560669.25   -145556.34 
  574500    299.65527    43.298592    457593.67   -145689.47    26348.963    24836.719    560492.09   -145720.58 
  574750    299.57425    73.219981    459361.68   -145506.49    26341.838    25043.987    560450.69   -145533.74 
  575000      299.349    134.22268     458863.1    -145757.7    26322.032    25175.091    560071.71   -145791.87 
  575250    300.46046   -123.40382    460593.66   -145681.55    26419.763    24778.505    560549.53   -145712.03 
  575500    300.93009   -97.292579    459967.75   -145391.65    26461.059    24628.214    560975.28   -145426.22 
  575750     297.7289   -183.63901    460456.54   -145732.17    26179.575    24660.961    560604.08   -145764.72 
  576000    300.11967   -73.936957    461506.18   -145697.82    26389.798    24929.005    560375.15    -145732.8 
  576250    299.56394   -260.79758    461081.28    -145695.3    26340.932    24528.101    560777.13   -145723.22 
  576500    298.30541    103.23533    458028.31   -145853.04    26230.268    25091.517    560057.56    -145890.1 
  576750    301.14897    159.95518    458100.54   -145837.55    26480.305    25181.949    559972.58   -145872.97 
  577000    299.16568   -119.65441    459789.98   -145731.27    26305.912    24763.783    560516.98   -145766.23 
  577250    300.25577    106.56539    457099.61   -146075.31    26401.765    25132.371     559789.3   -146109.57 
  577500    301.67821    25.247137    459361.52   -145807.56    26526.841    25077.851    560130.18   -145838.08 
  577750    300.22141    8.4336271    459900.44    -145922.2    26398.744    25122.782    559981.82   -145947.17 
  578000    301.98098    108.47869    458058.64   -145667.16    26553.464    25057.907    560275.08   -145701.81 
  578250    300.07813    82.072958    458290.93    -145693.2    26386.145    25009.181    560295.19   -145731.71 
  578500    300.48599   -38.911473    460455.89   -145840.15    26422.009    25087.596     560085.1   -145873.42 
  578750    299.35324     4.025318    459328.35   -145766.14    26322.404    24939.834    560293.01   -145798.82 
  579000    298.13401   -152.72903    459187.76   -145736.85    26215.196    24622.436    560647.79   -145766.69 
  579250    300.06342   -171.69052    458893.78   -145762.67    26384.852    24534.227    560702.83   -145801.48 
  579500    299.13483   -93.825323    459155.39    -145675.2    26303.199    24744.857    560578.27    -145716.3 
  579750    301.92426    17.062177    457903.72    -145946.6    26548.476    25028.366    560029.57   -145981.23 
  580000    299.64499    200.14263    458418.91   -145433.87    26348.058    25172.224    560388.47   -145469.96 
  580250     296.0751   -32.131571    458892.96    -145546.2    26034.155     24750.36    560705.55    -145581.9 
  580500    301.90354      51.9966    458675.03      -145617    26546.655    25006.639    560391.88   -145646.43 
  580750    302.04074    179.14038    457517.05   -145622.93    26558.719    25118.107     560246.6   -145653.53 
  581000    300.67573    62.032472    460044.33    -145885.8    26438.692    25189.366    559927.67   -145918.15 
  581250    300.74084   -286.74771     460077.9   -145656.23    26444.418    24422.783    560925.15   -145695.15 
  581500     300.1627    107.96393    458442.24   -146028.17    26393.581    25250.903       559720      -146062 
  581750    302.15862   -38.096973    460866.87   -145606.49    26569.084    24907.746    560486.58   -145634.63 
  582000    302.07371    47.727606    458711.87   -145763.84    26561.618    25035.504    560199.47   -145800.74 
  582250    299.79514    20.357022     459332.6   -145587.34    26361.261    24874.242    560559.58    -145619.3 
  582500    299.07374     -29.8049    459594.83   -145743.54    26297.828    24882.855    560375.24   -145774.79 
  582750    300.31044    241.67956     458951.4   -145310.29    26406.572    25205.294    560492.66   -145344.64 
  583000    299.98579    64.581654    459925.56    -145791.2    26378.025     25130.74    560067.66    -145827.7 
  583250    296.91805   -99.786578    461712.03   -145651.74    26108.276     24916.92    560426.17   -145678.88 
  583500    301.86531   -3.1475442    459115.96   -145830.32    26543.293    25012.589    560145.38   -145857.94 
  583750    300.84031   -179.39454    460851.67   -145586.08    26453.163    24574.377    560853.38   -145616.96 
  584000    300.40179   -24.432513    460632.68   -145482.71    26414.604    24843.144    560696.26    -145510.6 
  584250    299.61014    101.92974    458853.31    -145677.3    26344.994    25169.524    560155.07   -145705.56 
  584500    299.92529    169.68441    458914.61   -145814.16    26372.705    25277.973    559924.67    -145841.2 
  584750    297.91241    8.6174625     459773.1   -145798.61    26195.711    25005.582    560193.84   -145832.36 
  585000    298.55533    133.63285    459088.68   -145851.97    26252.243     25208.17    559943.66   -145876.01 
  585250    300.67976    17.434966    459305.87   -145282.88    26439.047     24813.59    560919.57   -145310.41 
  585500    295.62334   -66.902489    458668.47   -145610.89    25994.431    24765.846    560634.51   -145646.36 
  585750    300.43854    11.347676    459823.64    -145600.3    26417.836     24905.07    560498.37   -145628.49 
  586000     300.0853   -98.181134    461429.09   -145344.23    26386.776    24779.705     560874.1   -145372.95 
  586250    298.37083    73.113405    458479.01   -145760.02     26236.02    24998.323    560255.78   -145791.43 
  586500    299.13831    67.401945     456437.1   -145631.26    26303.506    24865.798     560513.1   -145669.96 
  586750    300.89954   -114.91159    458885.63      -145703    26458.372    24716.094    560568.95   -145743.88 
  587000    299.92572   -110.20621    459574.95   -146039.02    26372.744    24896.295    560070.25   -146076.39 
  587250    298.95189   -124.57615    458979.29   -145803.23    26287.113    24771.807       560427   -145835.76 
  587500     302.0741     276.8406    457090.18   -145830.24    26561.652    25332.374     559852.3   -145857.36 
  587750    300.46198   -55.978808    459332.69   -145820.35    26419.897    24892.416    560268.65   -145851.35 
  588000    300.95893   -123.59096    459554.27   -146020.86    26463.594    24775.797     560206.4   -146054.01 
  588250    298.73818    6.4366138    459839.89   -145937.25    26268.322    25050.285    560015.12   -145968.02 
  588500    297.12377   -32.622085    459441.22   -145471.92    26126.366    24804.039    560719.14   -145501.72 
  588750    299.87203    84.651426    458207.97   -145923.54    26368.022    25134.605    559943.28    -145957.4 
  589000    300.51208   -92.472699    458309.79   -145457.83    26424.303    24550.213    561018.02   -145488.55 
  589250    300.65015    -104.0325    459354.71   -145884.27    26436.443    24806.608    560331.27   -145916.63 
  589500    301.30028    85.232937    460626.43    -145596.3    26493.609    25119.588     560290.2   -145620.71 
  589750    298.98134   -91.336541    461501.27   -145303.76    26289.703     24699.77    560998.73   -145335.66 
  590000    302.63319    60.351332    460523.86   -145700.43    26610.814    25090.405    560219.27   -145732.14 
  590250    299.40156    65.326303    460016.68   -145658.97    26326.653    25086.381    560259.77   -145689.51 
  590500     296.8128   -139.89926     461479.9    -145527.2    26099.021    24732.597    560756.21   -145554.47 
  590750    297.07203    30.364809    461280.91   -145623.06    26121.815    25035.038    560329.81   -145657.78 
  591000    298.59002    -84.22534    461692.61   -145389.83    26255.294    24805.799     560793.4   -145418.64 
  591250    300.24934    33.217219    460172.13   -146310.78    26401.199    25256.684    559437.35   -146341.52 
  591500     300.1183    19.148869    461376.47   -145612.12    26389.677    25078.344    560304.39   -145650.81 
  591750    300.14416   -4.0277732    460368.95    -145677.2    26391.951    25025.084    560303.16   -145705.15 
  592000     296.8434   -27.763728    459437.79   -146165.72    26101.712    25083.398    559768.99   -146196.67 
  592250    299.71126    180.96392    459310.15   -145746.82    26353.886    25226.763    560023.14   -145775.42 
  592500    298.68667   -28.368119    459640.04   -145522.57    26263.792    24842.002    560640.82   -145550.17 
  592750    300.30181    9.1948639    460594.93   -145837.92    26405.813    24996.037    560158.53   -145866.12 
  593000     300.6697   -55.628344    460814.41   -145712.36    26438.162    24917.518    560375.34   -145743.09 
  593250    297.46779   -136.32528    459183.15   -146021.33    26156.615    24781.531    560191.59   -146053.63 
  593500    298.30358   -85.197062     458994.6   -146196.82    26230.107    24943.749    559882.95   -146227.53 
  593750    298.68313     107.3216    461523.58   -145576.86    26263.481    25324.643    560094.34   -145612.39 
  594000    300.00815    1.3082751    461097.08   -145706.89    26379.991    25081.844    560200.06   -145740.08 
  594250    299.62269    15.341413    459560.52   -145990.82    26346.098    25093.907    559933.66   -146023.24 
  594500    298.40529    10.199311    459952.73      -145952     26239.05    25138.594     559908.8   -145982.82 
  594750    298.66314   -85.818705    461455.54   -145512.77    26261.723    24801.051    560679.54   -145539.38 
  595000    298.28499    42.986197    461721.07   -145845.84    26228.472    25217.375    559953.48   -145879.12 
  595250    298.71764    49.529794    461520.27   -145659.46    26266.515    25237.571    560126.38   -145685.58 
  595500      299.547    83.023696    459423.72   -146129.43    26339.442     25382.68    559516.88   -146155.44 
  595750    300.52168   -193.63662    460255.73   -145611.61    26425.146    24574.123    560849.43   -145639.73 
  596000    300.58647   -34.959753    460800.94      -145617    26430.843    24954.642    560439.52   -145640.94 
  596250    297.81598   -116.33247     459353.5   -145865.87    26187.232    24736.124    560419.25   -145893.64 
  596500    299.21517    24.612301    459845.72   -145713.21    26310.264    24992.211    560313.79   -145745.91 
  596750    298.30292   -152.09905    461294.95   -145836.58    26230.049    24798.196    560349.47   -145865.41 
  597000    298.06939    62.690034    458462.39   -146029.95    26209.514    25203.066    559787.35   -146055.83 
  597250    301.20283    23.738117    459245.68   -145633.92     26485.04    24919.046    560457.86   -145665.99 
  597500    302.70755    36.269726    458458.85   -145793.16    26617.352    24968.175    560249.96   -145823.97 
  597750    298.01493    92.226288     458303.7   -145677.19    26204.726    25095.562    560218.64   -145706.17 
  598000    302.85681    141.72253    459930.04    -145330.8    26630.477    25086.657    560589.12   -145358.26 
  598250    302.27528    138.76256     460586.7    -145521.5    26579.342    25190.182    560302.88   -145541.54 
  598500    298.52174   -119.14425    459237.35   -145681.44     26249.29    24715.926    560605.49   -145710.85 
  598750    302.23489   -76.756208    458823.55   -145325.14    26575.791     24593.39    561114.15   -145356.88 
  599000    297.08522   -130.46226    461578.57   -145492.81    26122.976    24709.183    560823.11   -145522.24 
  599250     300.4077    192.26419    458928.06   -145771.95    26415.124    25264.978       559971   -145801.55 
  599500      298.236    29.905093    459868.84    -145576.4    26224.164    25013.603    560423.32   -145605.19 
  599750    298.22621   -28.400123     459228.2    -145887.3    26223.304    24976.945       560159   -145912.21 
  600000    299.62681   -261.28039    460015.46   -145806.91     26346.46     24530.63    560666.36   -145832.89 
  600250    298.95083   -39.993946    459079.47   -145506.15     26287.02    24741.576    560744.55   -145533.29 
  600500    299.28357   -86.487938     460111.4   -145651.78    26316.279    24834.174    560515.22   -145675.79 
  600750    299.21197   -185.69692    461098.55   -145746.19    26309.982    24628.685    560636.66   -145776.09 
  601000    301.07205    66.285762    461491.71    -145804.5    26473.541    25255.053    559965.21   -145836.96 
  601250    301.03315   -98.528277     461444.6    -145733.5     26470.12    24901.083    560363.15   -145768.31 
  601500    299.25785    63.553101    459534.66   -146288.71    26314.017    25330.101    559379.12   -146314.98 
  601750    298.20122    -123.4815     458700.9    -146176.2    26221.107    24876.261    559959.86   -146208.99 
  602000    301.40777   -44.898371    459639.29   -145765.41    26503.061    24859.558    560366.19   -145791.27 
  602250     298.7053   -13.572795    458898.35   -145935.35    26265.431    24958.982    560119.42   -145970.02 
  602500    299.45175    42.747497    458374.53    -145912.3    26331.067    25051.304    560040.28    -145940.8 
  602750    299.81651   -118.17467    459666.83   -145516.86     26363.14     24665.63    560820.38   -145557.22 
  603000    298.53548    142.90457    457794.87   -145680.04    26250.498    25104.184    560237.99   -145709.98 
  603250    300.23396    191.25524    458478.56   -145711.98    26399.847    25318.318    559984.02   -145745.33 
  603500    299.53393      268.912    457371.84   -145886.11    26338.293     25343.03     559772.7   -145925.57 
  603750    299.14323   -164.60462    458994.08   -145554.59    26303.939    24530.253    560914.62   -145589.98 
  604000    300.67572   -40.301319    458548.39   -145868.53    26438.692    24903.216    560249.61   -145900.45 
  604250    299.00434   -153.72028    460094.41   -145464.84    26291.725    24544.531    560984.19   -145500.11 
  604500    301.95377    154.92493    458130.77   -145708.65    26551.071    25071.603    560216.21   -145742.91 
  604750    301.58206    -13.32622    459199.07   -145581.31    26518.387    24879.644    560537.31   -145618.99 
  605000    299.04937   -75.727876    460126.95   -145736.24    26295.685    24868.073    560421.49   -145763.73 
  605250     299.6583   -172.19003    459969.02   -145776.03    26349.229    24722.591    560518.46   -145804.27 
  605500    300.86958    5.1356993    459969.08   -145728.53    26455.738    24969.824    560327.38   -145755.31 
  605750    301.58461    -25.59478    459799.14    -145956.7    26518.611    24969.816    560080.33   -145987.59 
  606000    300.10795   -99.754425    458632.43   -145853.53    26388.767    24779.785    560368.81   -145878.83 
  606250    299.45913   -96.975275    460403.83   -145295.85    26331.715    24556.353    561149.51   -145328.83 
  606500    301.71584    94.616896    458123.05   -145523.72     26530.15    24935.259    560529.26    -145550.6 
  606750    302.08328    101.83223    458631.22   -145579.19    26562.459    25049.074    560387.63   -145604.24 
  607000    301.69286    96.568107    458817.79   -145624.52    26528.129    24942.815    560458.78   -145651.57 
  607250    299.02045    22.169002    459147.81    -145619.7    26293.142    24953.193    560414.56   -145647.73 
  607500     299.7443     29.92435    459627.57   -145645.78    26356.791    25027.392    560338.14   -145672.62 
  607750    300.40531    88.316384    460218.15   -145632.69    26414.914    25135.425    560237.56   -145660.11 
  608000    299.19122    244.55953    459068.35   -145877.17    26308.158    25447.633    559685.01    -145904.1 
  608250    300.66198   -139.77818    460837.42   -145690.59    26437.483    24710.817    560606.78   -145717.82 
  608500    301.47076   -27.024177    460717.97   -145804.52      26508.6    24899.128    560297.01    -145828.9 
  608750    300.08796   -38.801821     460566.5   -145576.57    26387.009    24858.654    560572.91   -145606.21 
  609000    302.80611   -12.799822    460028.74   -145785.15    26626.019    24937.436    560297.77   -145809.88 
  609250    299.21315   -127.06527    460969.62   -145508.54    26310.086    24719.545    560773.18   -145532.02 
  609500     300.7586   -35.230571    460558.58   -146018.82    26445.979    25103.027    559868.23    -146042.4 
  609750    299.96584    13.498823    460622.34   -145592.67    26376.271    25038.616    560369.34   -145614.39 
  610000    301.81711    126.78901     459053.1   -145821.28    26539.055    25204.982    559994.64   -145852.61 
  610250    300.05494    119.43239    458765.99   -145714.21    26384.106     25194.62    560096.71   -145741.75 
  610500    298.58188   -94.453898    458429.41   -146079.95    26254.578    24824.285    560104.87    -146103.7 
  610750    296.98883   -82.520638    459040.32   -145695.79      26114.5    24816.885    560494.35   -145724.19 
  611000    299.99647   -92.947544    461234.65   -145706.16    26378.964     24919.71    560377.38   -145735.22 
  611250    300.67113    78.577995     458897.8   -145929.52    26438.288      25099.3    559994.01    -145955.6 
  611500    301.34364   -102.35481    460156.94   -145804.02    26497.422    24763.388    560452.62    -145828.7 
  611750    299.38409    44.918713    459057.53   -145903.16    26325.118    25107.748    560011.98    -145927.1 
  612000    301.10623    50.202107    459534.62   -145890.39    26476.547     25139.76    559990.31   -145912.35 
  612250    301.63146    133.21227    459213.26   -145723.69     26522.73    25215.774     560076.5   -145755.34 
  612500    299.24799    135.79617    458290.17   -145910.29     26313.15    25227.943     559883.3   -145934.17 
  612750    299.73009    127.75055    457623.28   -145966.39    26355.541    25154.662    559897.43   -145991.48 
  613000    300.63045   -162.43557    460060.46   -145698.12    26434.711    24692.627    560638.12   -145721.95 
  613250    297.76371    13.075651    458421.19   -145702.34    26182.635    24898.486    560397.98    -145728.3 
  613500    299.42713   -8.9891741    459536.72   -145771.44    26328.902    24941.028    560291.58   -145800.75 
  613750    302.29437    135.11193    459413.39    -145828.3    26581.021    25220.528    559983.34   -145853.91 
  614000    300.48695   -28.315397    460546.27   -145527.83    26422.093    24868.652    560602.03   -145552.54 
  614250    300.45568    214.41711    459187.75   -146070.09    26419.343    25542.586    559413.72   -146095.42 
  614500    300.52979   -133.38979    460562.87   -145575.64     26425.86    24706.112    560720.54   -145603.43 
  614750    298.07332    67.749002    458621.05   -145989.82     26209.86    25073.785    559948.28   -146018.25 
  615000    299.06554   -9.9216961    459302.71   -145827.11    26297.107    24949.321    560243.59    -145849.8 
  615250    301.01032   -34.089495    459789.32   -145790.86    26468.113    24871.972    560348.19   -145819.61 
  615500    300.88785   -4.4771013    458826.62   -145968.37    26457.344    24998.768    560058.04   -145992.26 
  615750    300.01631    60.726391    458397.35   -145701.71    26380.709    25002.873    560303.58   -145728.93 
  616000    301.22264   -89.460227     459359.7   -145825.65    26486.782    24819.044    560356.65   -145851.08 
  616250     301.4163   -67.405951    459616.93   -145865.12    26503.811     24927.78    560220.66   -145891.66 
  616500    300.87592    107.91308    459295.11    -145759.4    26456.295    25106.038    560136.24   -145781.23 
  616750    301.14338   -20.432298    459300.46    -145635.5    26479.813    24808.829    560562.45   -145661.93 
  617000    301.20212   -10.966718    460436.89   -145480.43    26484.978    24902.646    560625.92   -145509.82 
  617250    300.69097    127.58338    459018.58   -146048.53    26440.032    25317.714    559641.08   -146075.85 
  617500    299.13778   -93.169786    459996.57   -145776.16    26303.459    24827.093    560411.25   -145801.88 
  617750    298.39653   -14.822101     460078.1   -145549.93     26238.28    24915.132     560543.2   -145581.77 
  618000    299.51398    84.549187    458859.26   -145549.48    26336.538    25085.727    560375.66   -145578.85 
  618250     300.7228   -48.335252    458117.38   -145976.79    26442.831    24894.479    560148.59   -146006.81 
  618500    300.21258     245.5345    457772.07   -146050.73    26397.967    25425.777    559556.86   -146081.11 
  618750    299.22406    35.502789    461109.19   -145638.06    26311.045    25075.916    560301.46   -145667.28 
  619000    299.16197   -108.93535    460401.52   -145748.71    26305.586    24797.211    560449.93   -145776.14 
  619250    299.13544   -94.479387    460694.16    -145978.5    26303.253    24947.371    560086.99   -146007.35 
  619500    298.91495    -27.15127    461131.05   -145656.28    26283.866    24957.115    560382.22    -145685.2 
  619750    299.53976   -90.731066    459997.91    -146273.3    26338.805    24972.817    559768.16   -146300.63 
  620000    300.08514   -35.965647    459143.99   -146213.64    26386.761    25060.774    559726.51    -146245.1 
  620250    299.25813    5.7423568    459909.63   -145934.27    26314.042    25083.714    559976.26   -145965.07 
  620500    301.51503    273.54149    458701.27   -145898.33    26512.493    25467.527    559650.17   -145924.23 
  620750    299.23732   -61.644172    460790.11   -145657.74    26312.212    24927.291    560405.56   -145693.98 
  621000     299.2676   -49.762567    459927.14   -145791.62    26314.874    24985.784    560219.68   -145827.29 
  621250     301.4202    77.314013     458452.9   -146055.87    26504.154    25181.377    559784.41   -146084.97 
  621500    300.88882    1.2678982    459353.49    -145917.4    26457.429    25062.488    560035.86   -145950.53 
  621750    300.01683   -67.437769    459094.07   -145736.73    26380.754    24786.286    560486.38   -145770.84 
  622000    300.80038    132.00094     458412.2   -146293.05    26449.653    25359.491    559355.69   -146322.76 
  622250    301.49543   -90.059149    459220.34   -145858.84    26510.769    24786.794    560366.98   -145892.37 
  622500    302.69106   -121.72686    458458.02   -145890.91    26615.902    24654.028    560469.82   -145932.52 
  622750     298.9288   -88.730904    460239.83   -145539.54    26285.083    24694.349    560751.14   -145575.19 
  623000    300.00811    1.7369913    458160.75   -145610.67    26379.988    24796.066    560617.91   -145642.15 
  623250    298.21307   -52.579286    459486.28   -145766.11    26222.149      24894.9    560338.97   -145804.14 
  623500    302.13145   -66.175846    459498.33   -145761.82    26566.695    24803.265     560433.4   -145796.25 
  623750    298.14802   -149.82779       459646   -146040.09    26216.429    24777.053    560193.62   -146066.91 
  624000    300.60174    6.9747988    458055.51   -145813.94    26432.187    24944.013    560248.72   -145850.55 
  624250    300.89049    243.86138    457240.33   -146097.75    26457.576    25478.799    559448.16   -146129.03 
  624500    298.30024   -68.945481    460307.24   -145897.73    26229.813    24936.723    560173.22   -145927.26 
  624750    300.61936     -28.0893    458584.75   -146127.03    26433.736     24945.41    559928.42   -146157.84 
  625000     302.7267   -29.756893    458742.08   -145776.93    26619.036    24815.552    560411.85    -145804.2 
  625250    301.21342   -118.49477    458414.51   -146123.53    26485.972    24809.922    560068.12   -146158.32 
  625500    297.32933   -292.61297    460653.19    -145804.6     26144.44    24492.052    560733.77    -145839.1 
  625750    300.06376    130.06207    459157.31   -146068.09    26384.881      25384.9    559564.21   -146104.06 
  626000     300.7202    -23.70108    457970.68   -145990.69    26442.603    24817.859    560189.98   -146018.84 
  626250    299.32324    -122.6809    459264.06   -145979.83    26319.767    24754.416    560265.66   -146014.76 
  626500    301.33098     40.84719     458614.7   -145844.86    26496.309     24985.71    560160.33   -145874.48 
  626750     300.2129   -46.424264    459133.24   -145973.72    26397.995    24946.828    560081.82   -146006.25 
  627000    299.26443   -16.624702    458468.31   -145484.45    26314.595    24761.662    560759.89   -145514.12 
  627250    302.05231   -112.30761    460385.82   -146032.93    26559.736    24920.315    560070.11   -146062.94 
  627500     301.4038   -4.3301655    459310.76   -146010.88    26502.712    25040.348    559947.67   -146042.21 
  627750    299.20693    96.521272     460245.5   -145753.59    26309.539    25197.439     560054.6   -145782.98 
  628000    301.54574    29.356045    461389.65   -145667.98    26515.193    25091.942    560239.54   -145700.38 
  628250    299.57592      83.1919    460139.31   -146206.36    26341.985    25368.005    559437.01   -146236.72 
  628500    298.33172   -153.37854    460384.73   -145937.35    26232.582     24796.02    560284.25   -145970.22 
  628750    297.98539    119.32942    460066.96   -145902.12    26202.128    25299.002    559827.61   -145928.17 
  629000    301.97034    138.56982    459933.74   -145576.38    26552.529    25156.162    560284.38   -145597.05 
  629250     301.7449    145.09608    458834.43   -145947.21    26532.706    25252.338    559815.71   -145975.22 
  629500    298.88704   -113.49998    461346.53   -145639.61    26281.411    24803.087    560564.97   -145667.86 
  629750    300.00732   -73.565491    459759.17    -145939.8    26379.918    24861.359    560207.66   -145968.54 
  630000    299.10285    50.280383    459694.77   -145794.91    26300.387    25085.917    560137.36   -145827.09 
  630250    300.35872   -19.449494    458951.43   -145867.96    26410.818    24977.388    560137.07   -145898.97 
  630500    299.97087    111.42026    459079.06   -145957.17    26376.714    25216.899     559831.6   -145990.74 
  630750    300.99777   -262.25051    460973.25   -145765.63    26467.009    24505.191    560732.04   -145790.35 
  631000    298.02925   -21.341749    459467.66   -146036.76    26205.985    25029.056    559953.62   -146058.69 
  631250     299.9568    13.864675       459879   -146100.47    26375.476    25098.313    559828.84   -146122.35 
  631500    298.94619    31.508739     460106.5   -146036.42    26286.612    25207.296    559771.55   -146064.19 
  631750    299.34994   -3.3395343    460048.04   -145899.69    26322.114    25062.945    560070.16    -145923.5 
  632000     301.5519    26.673256    460807.74   -146020.48    26515.735    25155.428    559829.71   -146045.86 
  632250     298.7375    31.418431    460920.63   -145582.71    26268.262    25027.209     560396.5   -145606.67 
  632500     300.2688    31.313562    460602.43    -145870.5     26402.91    25097.752    560043.86   -145895.34 
  632750    301.16493    11.105283    459831.25   -146262.43    26481.708    25222.802    559532.15   -146290.97 
  633000    299.43785   -100.33975    460737.48   -145571.18    26329.845    24768.654       560669   -145598.07 
  633250    301.19183   -18.123308    459959.28   -145625.24    26484.073     24821.02    560581.64   -145653.92 
  633500    301.32639   -27.766173    459603.85   -146036.13    26495.905    25034.846    559941.76   -146061.73 
  633750    298.61328    14.937772    459280.93   -145977.48    26257.339    25111.692    559902.36   -146003.43 
  634000    300.18975   -118.92583    458163.02    -145927.3     26395.96     24620.87    560451.56   -145958.01 
  634250    302.57207   -15.278701    458723.19   -145723.46    26605.439    24762.461    560531.38   -145750.49 
  634500    299.41395    9.4818546     460237.1   -145471.08    26327.743    24896.073    560638.12   -145502.44 
  634750     299.0946    27.612385    459064.45   -145711.31    26299.662    24967.612     560320.3   -145744.83 
  635000    300.33335   -189.27319    459309.55   -145855.19    26408.587    24590.775    560572.17   -145881.95 
  635250    301.04158    42.189201    459106.34   -146027.39    26470.862    25118.778    559872.16   -146051.59 
  635500    300.80549     135.0917    458987.98   -145874.68    26450.102    25291.871    559837.53   -145904.94 
  635750    299.58112   -43.977895     460406.1   -145565.05    26342.442    24832.431    560618.26    -145590.8 
  636000    300.76754   -124.62632    460789.61   -145853.42    26446.765    24799.204    560351.09    -145882.3 
  636250    298.90955    74.798686    459583.56   -145929.46    26283.391    25218.918    559878.14   -145961.54 
  636500    300.37453    235.87913    458752.64   -146116.63    26412.207    25583.233    559306.48   -146148.05 
  636750    299.51428    130.72928    459249.83   -145879.96    26336.565    25237.993    559891.24   -145901.53 
  637000    299.30983   -62.016169    460802.93    -145926.1    26318.588    24933.859    560158.83   -145955.51 
  637250    301.16964    86.383931    460540.35   -145858.95    26482.122    25246.177    559917.56   -145883.64 
  637500    300.29187   -13.213416    459130.77    -145911.3    26404.939    24990.504    560106.65   -145937.83 
  637750    299.43953    105.38245    457101.22   -145735.96    26329.992    24955.921    560329.93   -145762.86 
  638000    299.60279    64.220638     457740.4   -145618.75    26344.348    24909.335    560481.22   -145648.19 
  638250    299.74886   -71.322835    458939.02   -146133.31    26357.192    24886.604    559987.65   -146159.43 
  638500    299.50276   -100.69318    460801.38   -145755.37    26335.552    24753.127    560516.39   -145780.54 
  638750    301.97931   -103.93587    459354.38   -145854.52    26553.317    24706.331    560443.88   -145880.77 
  639000    299.47819    7.2381464    458437.45   -146150.56    26333.392    25083.914    559784.13    -146177.6 
  639250    299.69159    190.91951    459059.79   -145610.71    26352.156    25294.282    560107.87   -145641.46 
  639500     299.9596    96.579736    459008.43   -145700.02    26375.722    25090.616     560215.6   -145726.76 
  639750    300.01646    133.09089    458946.91   -145815.74    26380.722    25208.476     559985.7   -145841.83 
  640000    299.13888   -5.5526022    460017.26   -145225.19    26303.555    24827.989    560943.48    -145253.6 
  640250    300.00557   -2.7139234    459917.29   -145734.53    26379.765    24965.668    560298.15    -145766.2 
  640500    302.86184    24.439302     458948.5   -145710.16    26630.919     24928.71    560375.91    -145738.7 
  640750    302.73709   -65.671691    458206.78   -145931.77    26619.949    24832.245    560242.88    -145965.7 
  641000     301.1535    -162.0918    460822.54    -145748.2    26480.703    24670.671    560599.02   -145776.48 
  641250    299.44266    119.50387    458529.97   -146108.56    26330.267     25252.67    559668.38   -146134.57 
  641500    298.89213    130.93157    457722.15   -146165.45    26281.858    25332.024    559491.12   -146199.99 
  641750    301.22825   -54.154072     458476.6   -146044.73    26487.276    24869.706    560103.14   -146073.61 
  642000     301.6587   -8.2923365    459164.39   -146175.87    26525.126    25063.022    559771.55    -146206.1 
  642250    298.72707   -142.36741    460427.04   -146041.94    26267.345     24884.45     560097.3   -146065.48 
  642500    299.38452    84.127842    457581.83   -145999.64    26325.155    25102.279    559924.33   -146019.56 
  642750    303.43011    95.979913    459097.11   -145870.08    26680.887    25137.991    560021.88   -145894.36 
  643000    298.11778    140.39368    458779.98   -146117.03     26213.77    25408.505    559485.28   -146147.65 
  643250    299.72558    12.535627    459969.51   -145733.59    26355.144    25045.588    560229.09   -145756.49 
  643500    300.50338   -135.14526    461195.28    -145694.1    26423.538    24831.996    560483.46   -145720.37 
  643750      299.586    10.927838    459601.83   -146030.47    26342.871    25091.108    559879.18   -146060.68 
  644000     300.8627    80.757228    459370.94   -145700.23    26455.133    25113.281    560192.39   -145731.97 
  644250    299.04468    122.30971    457837.66   -146230.78    26295.272    25349.244     559449.5   -146253.21 
  644500    299.35722     30.34647    458615.93    -145991.1    26322.755    25082.217    559922.02   -146024.47 
  644750    298.76534    -55.19564     460422.8   -145938.36     26270.71    24925.287    560141.74   -145966.85 
  645000    301.40507    23.670568    459849.93    -145501.3    26502.824      24953.5    560537.14   -145524.73 
  645250    302.34794    72.495745       458417   -146111.95    26585.731    25182.923    559701.07   -146142.12 
  645500    300.32075   -19.931506    459480.26   -145915.67    26407.479     25017.52    560078.82    -145944.3 
  645750    299.89573    3.2378207    459763.07   -146037.52    26370.106    25107.101    559860.21   -146069.32 
  646000    300.51754    53.919927    457714.02   -145900.79    26424.782    24955.713    560146.48   -145936.64 
  646250     299.9598    -32.94037    458279.72   -145848.46     26375.74    24755.751    560407.91   -145888.45 
  646500    299.22372    38.191392    459626.76   -145868.01    26311.015    25150.421    559976.28   -145899.67 
  646750    301.12323    123.61707    458872.36    -146255.9    26478.042    25319.026    559412.75   -146294.94 
  647000    298.91626    94.807086    460533.18   -145522.64     26283.98    25098.677     560384.2   -145556.59 
  647250    300.89944   -82.319133    460247.47   -146153.67    26458.364    24864.578    559993.75   -146188.03 
  647500    299.00086    85.495416    459528.29   -145849.78     26291.42    25133.149     560028.8   -145878.27 
  647750      302.883    74.451121       459860   -146118.23    26632.779    25292.593    559604.61   -146150.34 
  648000    303.32023   -147.41565    461088.38   -145878.03    26671.226    24799.081    560332.06   -145906.82 
  648250    297.89844    95.005037    459780.85   -145728.37    26194.482    25140.733    560130.08   -145763.66 
  648500    301.87325    59.092392    458693.73   -146015.37    26543.991    25031.056    559977.98   -146042.05 
  648750     302.4787    42.925607    460079.63   -145615.92    26597.229    24962.849    560420.91   -145653.86 
  649000    300.32001   -111.87348    460294.48   -146248.77    26407.413    24954.779    559812.66    -146280.8 
  649250    299.80583    107.87618    459300.27   -146134.84    26362.201    25302.998    559560.72   -146164.87 
  649500    300.62043    26.995893    459619.76   -145966.29    26433.829    25094.167    559935.71   -145997.25 
  649750    298.22577   -1.8876728    458480.02   -146105.06    26223.265    25049.014    559858.92   -146132.76 
  650000    298.55574    0.9312102     459267.3   -146153.13    26252.279    25064.804    559780.07   -146185.54 
  650006    298.38406   -21.800047    459324.95   -146118.47    26237.184    25034.409    559855.99   -146149.85 
Loop time of 44837.2 on 1 procs (1 MPI x 1 OpenMP) for 100000 steps with 44200 atoms

Pair  time (%) = 32450.4 (72.3739)
Bond  time (%) = 1.05427 (0.00235132)
Kspce time (%) = 3606.83 (8.04428)
Neigh time (%) = 5799.89 (12.9355)
Comm  time (%) = 106.15 (0.236746)
Outpt time (%) = 1.70195 (0.00379585)
Other time (%) = 2871.16 (6.40352)

FFT time (% of Kspce) = 810.036 (22.4584)
FFT Gflps 3d (1d only) = 1.51904 2.98435

Nlocal:    44200 ave 44200 max 44200 min
Histogram: 1 0 0 0 0 0 0 0 0 0
Nghost:    70528 ave 70528 max 70528 min
Histogram: 1 0 0 0 0 0 0 0 0 0
Neighs:    1.46378e+07 ave 1.46378e+07 max 1.46378e+07 min
Histogram: 1 0 0 0 0 0 0 0 0 0

Total # of neighbors = 14637814
Ave neighs/atom = 331.172
Ave special neighs/atom = 2.00851
Neighbor list builds = 11310
Dangerous builds = 0
write_restart   confout-6.data
PPPM initialization ...
  G vector (1/distance) = 0.263259
  grid = 90 25 25
  stencil order = 5
  estimated absolute RMS force accuracy = 0.0401529
  estimated relative force accuracy = 0.000120919
  using double precision FFTs
  3d grid and FFT values/proc = 97280 56250
