ITEM: TIMESTEP
550005
ITEM: NUMBER OF ATOMS
44200
ITEM: BOX BOUNDS pp pp pp
14.9505 248.05
2.8423 47.1577
2.8423 47.1577
ITEM: ATOMS id mol type x y z ix iy iz 
1 1 1 195.391 7.54002 33.3599 -2 0 0 
2 1 2 195.764 7.0714 32.5591 -2 0 0 
3 1 2 194.839 8.31914 33.0629 -2 0 0 
4 2 1 198.453 31.2507 41.4332 -2 -3 0 
5 2 2 198.867 30.3402 41.4282 -2 -3 0 
6 2 2 198.693 31.7301 40.5889 -2 -3 0 
7 3 1 182.186 3.87507 20.7023 -2 0 -1 
8 3 2 181.556 4.19614 21.4096 -2 0 -1 
9 3 2 182.11 4.46318 19.897 -2 0 -1 
10 4 1 237.958 7.74908 18.8071 -2 1 2 
11 4 2 237.473 8.26362 18.1001 -2 1 2 
12 4 2 238.944 7.85998 18.6826 -2 1 2 
13 5 1 34.6462 21.8443 19.9278 -1 0 0 
14 5 2 34.3737 22.2664 19.0631 -1 0 0 
15 5 2 35.4113 22.3541 20.3211 -1 0 0 
16 6 1 223.442 21.6764 16.2252 -2 0 -1 
17 6 2 222.639 21.7634 15.635 -2 0 -1 
18 6 2 223.346 20.8643 16.8008 -2 0 -1 
19 7 1 188.358 2.88007 23.1517 -2 1 1 
20 7 2 187.645 3.58043 23.1111 -2 1 1 
21 7 2 188.608 46.9208 22.2235 -2 0 1 
22 8 1 245.49 27.2828 4.5878 -2 -1 0 
23 8 2 244.616 26.984 4.96897 -2 -1 0 
24 8 2 245.689 28.2123 4.89839 -2 -1 0 
25 9 1 244.261 5.56009 27.6621 -2 -1 -1 
26 9 2 244.602 6.4053 28.0732 -2 -1 -1 
27 9 2 244.848 5.30142 26.8953 -2 -1 -1 
28 10 1 224.731 2.9896 13.6924 -2 1 0 
29 10 2 223.826 3.01539 14.1155 -2 1 0 
30 10 2 225.09 3.91991 13.6157 -2 1 0 
31 11 1 55.0793 20.084 38.506 -1 -1 0 
32 11 2 54.5923 20.3517 39.3373 -1 -1 0 
33 11 2 55.9865 19.7395 38.7475 -1 -1 0 
34 12 1 199.413 36.24 5.91388 -2 -1 1 
35 12 2 199.887 35.6821 5.2326 -2 -1 1 
36 12 2 199.871 37.125 5.99707 -2 -1 1 
37 13 1 170.193 12.2218 14.9836 -2 0 1 
38 13 2 170.875 12.4355 14.2835 -2 0 1 
39 13 2 170.578 12.4004 15.8891 -2 0 1 
40 14 1 201.677 43.1998 4.30234 -2 -1 0 
41 14 2 201.668 43.7915 5.10841 -2 -1 0 
42 14 2 200.857 42.627 4.30006 -2 -1 0 
43 15 1 182.81 41.32 33.5712 -2 -2 0 
44 15 2 183.467 40.5663 33.5924 -2 -2 0 
45 15 2 181.904 40.9661 33.3396 -2 -2 0 
46 16 1 207.006 12.7061 41.4716 -2 0 0 
47 16 2 206.071 12.7011 41.8251 -2 0 0 
48 16 2 207.03 13.1923 40.5981 -2 0 0 
49 17 1 239.327 11.9842 7.72427 -2 -1 0 
50 17 2 239.07 11.2841 8.39037 -2 -1 0 
51 17 2 239.742 12.7599 8.19955 -2 -1 0 
52 18 1 233.441 19.9087 38.0366 -2 0 -1 
53 18 2 234.049 19.1585 37.7763 -2 0 -1 
54 18 2 232.95 19.6647 38.8728 -2 0 -1 
55 19 1 194.979 43.2723 30.5539 -2 -1 0 
56 19 2 194.843 43.4897 29.5874 -2 -1 0 
57 19 2 195.112 44.1183 31.0703 -2 -1 0 
58 20 1 169.999 14.1275 23.0671 -2 -1 1 
59 20 2 170.464 14.6098 23.8099 -2 -1 1 
60 20 2 169.835 13.1789 23.3373 -2 -1 1 
61 21 1 211.132 35.0103 14.8937 -2 -1 0 
62 21 2 210.37 34.6658 14.3447 -2 -1 0 
63 21 2 211.377 35.9292 14.5845 -2 -1 0 
64 22 1 219.319 45.5235 22.4661 -2 -1 -1 
65 22 2 219.201 45.5979 23.4564 -2 -1 -1 
66 22 2 220.108 44.9426 22.2673 -2 -1 -1 
67 23 1 198.258 37.3597 28.1567 -2 -1 1 
68 23 2 199.111 37.8246 28.3939 -2 -1 1 
69 23 2 197.693 37.2617 28.9759 -2 -1 1 
70 24 1 236.361 40.1779 25.4325 -2 -1 -1 
71 24 2 236.746 39.4624 24.8497 -2 -1 -1 
72 24 2 236.21 41.0044 24.89 -2 -1 -1 
73 25 1 159.988 44.6444 3.28107 -2 -1 1 
74 25 2 160.253 45.5373 2.91656 -2 -1 1 
75 25 2 160.584 43.9383 2.89747 -2 -1 1 
76 26 1 220.859 34.3913 29.9195 -2 1 1 
77 26 2 220.748 34.9831 30.7179 -2 1 1 
78 26 2 221.273 34.9122 29.1732 -2 1 1 
79 27 1 174.528 46.8285 42.209 -2 -1 0 
80 27 2 175.09 46.1139 41.7928 -2 -1 0 
81 27 2 174.061 3.03046 41.4915 -2 0 0 
82 28 1 223.73 18.2704 12.2585 -2 0 2 
83 28 2 223.556 17.7118 13.0695 -2 0 2 
84 28 2 223.32 19.1742 12.3821 -2 0 2 
85 29 1 245.062 16.3444 40.2169 -2 0 -2 
86 29 2 245.02 17.3378 40.1108 -2 0 -2 
87 29 2 245.945 16.0109 39.8846 -2 0 -2 
88 30 1 174.357 3.73519 11.2295 -2 -1 -1 
89 30 2 174.675 4.22571 12.0411 -2 -1 -1 
90 30 2 175.127 3.25762 10.8063 -2 -1 -1 
91 31 1 188.426 24.6981 17.8302 -2 0 0 
92 31 2 187.576 24.2607 17.5353 -2 0 0 
93 31 2 189.185 24.3577 17.2764 -2 0 0 
94 32 1 185.706 44.6599 45.549 -2 -1 1 
95 32 2 186.606 44.9463 45.2213 -2 -1 1 
96 32 2 185.003 45.2505 45.152 -2 -1 1 
97 33 1 164.973 36.3644 17.2057 -2 0 1 
98 33 2 165.504 37.0875 17.6473 -2 0 1 
99 33 2 165.562 35.8536 16.5792 -2 0 1 
100 34 1 207.696 4.73589 40.6044 -2 0 0 
101 34 2 207.478 4.46871 41.543 -2 0 0 
102 34 2 208.155 5.62449 40.6088 -2 0 0 
103 35 1 196.629 24.2798 38.257 -2 0 -1 
104 35 2 195.859 24.4136 37.633 -2 0 -1 
105 35 2 196.837 25.1418 38.7191 -2 0 -1 
106 36 1 240.936 14.5538 25.0356 -2 0 0 
107 36 2 240.839 15.4797 24.6704 -2 0 0 
108 36 2 240.143 14.3358 25.6058 -2 0 0 
109 37 1 199.179 34.135 35.2839 -2 -1 0 
110 37 2 199.307 34.1915 36.2739 -2 -1 0 
111 37 2 199.283 35.0446 34.8817 -2 -1 0 
112 38 1 18.24 43.9533 35.879 -1 -1 -1 
113 38 2 17.324 44.3136 35.7026 -1 -1 -1 
114 38 2 18.8822 44.3353 35.2143 -1 -1 -1 
115 39 1 226.354 31.1328 7.58995 -2 -2 1 
116 39 2 225.685 31.8759 7.61341 -2 -2 1 
117 39 2 226.702 30.9681 8.51298 -2 -2 1 
118 40 1 200.654 10.8357 34.3652 -2 0 1 
119 40 2 201.101 10.7133 33.4795 -2 0 1 
120 40 2 201.078 10.2318 35.0397 -2 0 1 
121 41 1 196.44 9.57076 30.8091 -2 -2 1 
122 41 2 196.496 10.4779 30.392 -2 -2 1 
123 41 2 195.528 9.43841 31.1975 -2 -2 1 
124 42 1 241.88 24.6133 40.0161 -2 -1 -1 
125 42 2 241.418 25.4 40.4257 -2 -1 -1 
126 42 2 242.692 24.3863 40.5539 -2 -1 -1 
127 43 1 164.668 29.2621 22.5063 -2 -1 -1 
128 43 2 164.16 30.0369 22.883 -2 -1 -1 
129 43 2 165.215 28.8395 23.2286 -2 -1 -1 
130 44 1 206.297 16.1744 5.36454 -2 0 0 
131 44 2 206.916 15.4073 5.53377 -2 0 0 
132 44 2 206.118 16.2477 4.38352 -2 0 0 
133 45 1 151.632 35.4497 21.4646 -2 -1 0 
134 45 2 151.504 36.1901 22.1244 -2 -1 0 
135 45 2 150.841 35.4065 20.8546 -2 -1 0 
136 46 1 216.141 23.4708 22.5264 -2 0 1 
137 46 2 216.482 23.2602 21.6099 -2 0 1 
138 46 2 216.479 24.3687 22.8091 -2 0 1 
139 47 1 198.319 9.47791 20.1576 -2 0 0 
140 47 2 199.014 9.63245 19.4554 -2 0 0 
141 47 2 198.618 9.88982 21.0185 -2 0 0 
142 48 1 182.052 21.5522 29.5843 -2 -1 1 
143 48 2 181.269 22.1403 29.3835 -2 -1 1 
144 48 2 182.622 21.9834 30.2838 -2 -1 1 
145 49 1 221.006 12.335 46.4858 -2 -1 0 
146 49 2 220.261 12.9773 46.6637 -2 -1 0 
147 49 2 221.641 12.3381 2.94356 -2 -1 1 
148 50 1 182.815 35.2891 31.1444 -2 -1 1 
149 50 2 182.601 36.2306 31.4048 -2 -1 1 
150 50 2 183.748 35.2458 30.7872 -2 -1 1 
151 51 1 238.23 7.14197 43.6082 -2 1 0 
152 51 2 237.455 6.92334 44.2017 -2 1 0 
153 51 2 238.344 8.13433 43.561 -2 1 0 
154 52 1 206.115 32.0678 39.2513 -2 -1 0 
155 52 2 207.022 31.99 39.6646 -2 -1 0 
156 52 2 205.96 31.2927 38.6388 -2 -1 0 
157 53 1 184.855 3.84874 12.5347 -2 -1 0 
158 53 2 185.48 3.68508 11.7715 -2 -1 0 
159 53 2 185.367 4.21344 13.3125 -2 -1 0 
160 54 1 105.855 12.5449 43.531 -1 0 -1 
161 54 2 105.449 12.7972 44.4089 -1 0 -1 
162 54 2 106.536 13.2297 43.2698 -1 0 -1 
163 55 1 234.459 14.4151 22.4729 -2 -1 1 
164 55 2 235.326 13.9262 22.3762 -2 -1 1 
165 55 2 233.795 14.048 21.8215 -2 -1 1 
166 56 1 216.972 3.32166 24.9449 -2 -1 2 
167 56 2 217.255 3.59087 24.0242 -2 -1 2 
168 56 2 216.516 4.09106 25.3917 -2 -1 2 
169 57 1 171.642 44.8492 39.6615 -2 -2 0 
170 57 2 171.95 45.1799 40.5536 -2 -2 0 
171 57 2 170.947 44.1421 39.7901 -2 -2 0 
172 58 1 224.851 7.77211 28.0947 -2 -1 0 
173 58 2 225.428 8.10594 27.3489 -2 -1 0 
174 58 2 224.508 6.86034 27.8685 -2 -1 0 
175 59 1 135.572 43.5617 37.4258 -2 0 0 
176 59 2 136.056 42.6954 37.5509 -2 0 0 
177 59 2 134.615 43.3796 37.1999 -2 0 0 
178 60 1 208.465 31.3962 40.2364 -2 -2 0 
179 60 2 208.6 30.5987 40.8244 -2 -2 0 
180 60 2 209.264 31.9945 40.2975 -2 -2 0 
181 61 1 236.173 35.0056 26.0035 -2 -1 0 
182 61 2 236.465 35.9023 26.3359 -2 -1 0 
183 61 2 236.282 34.9663 25.0103 -2 -1 0 
184 62 1 194.906 18.6019 38.7969 -2 -1 2 
185 62 2 194.073 18.2829 38.3445 -2 -1 2 
186 62 2 195.418 17.8165 39.1456 -2 -1 2 
187 63 1 237.929 22.824 34.3327 -2 0 1 
188 63 2 238.74 23.0652 34.8654 -2 0 1 
189 63 2 237.804 23.4888 33.5962 -2 0 1 
190 64 1 179.206 37.1992 21.2876 -2 0 1 
191 64 2 178.831 38.1122 21.4483 -2 0 1 
192 64 2 178.457 36.5445 21.1856 -2 0 1 
193 65 1 213.001 39.3337 45.7634 -2 0 0 
194 65 2 213.576 39.5166 46.5603 -2 0 0 
195 65 2 212.067 39.6415 45.9488 -2 0 0 
196 66 1 172.949 21.0053 44.644 -2 0 0 
197 66 2 173.054 21.6112 45.4327 -2 0 0 
198 66 2 173.85 20.6968 44.3385 -2 0 0 
199 67 1 190.065 27.4731 14.8653 -2 0 1 
200 67 2 190.122 28.383 14.4546 -2 0 1 
201 67 2 189.243 27.0094 14.5348 -2 0 1 
202 68 1 188.739 27.0179 3.2614 -2 -2 2 
203 68 2 188.588 26.1006 3.62987 -2 -2 2 
204 68 2 189.468 26.9869 46.8938 -2 -2 1 
205 69 1 207.612 43.2752 44.1954 -2 0 1 
206 69 2 207.546 43.4637 43.2155 -2 0 1 
207 69 2 207.099 42.4447 44.4104 -2 0 1 
208 70 1 201.997 6.61335 29.5266 -2 1 0 
209 70 2 202.718 7.06819 30.0486 -2 1 0 
210 70 2 202.141 5.62416 29.5498 -2 1 0 
211 71 1 211.192 34.5814 6.3673 -2 0 1 
212 71 2 211.711 35.4203 6.20235 -2 0 1 
213 71 2 210.473 34.493 5.67791 -2 0 1 
214 72 1 170.839 44.495 9.78913 -2 0 0 
215 72 2 171.716 44.0229 9.87078 -2 0 0 
216 72 2 170.857 45.0974 8.99114 -2 0 0 
217 73 1 215.978 30.2188 26.7029 -2 -2 2 
218 73 2 215.943 29.7376 27.5788 -2 -2 2 
219 73 2 216.162 31.1887 26.8626 -2 -2 2 
220 74 1 206.612 20.9006 34.9814 -2 -1 -1 
221 74 2 206.042 21.3647 35.6589 -2 -1 -1 
222 74 2 206.087 20.7617 34.142 -2 -1 -1 
223 75 1 133.483 38.5601 19.0044 -2 1 1 
224 75 2 133.995 39.0895 18.3277 -2 1 1 
225 75 2 133.919 37.6693 19.1301 -2 1 1 
226 76 1 168.617 26.7313 9.33628 -2 -2 2 
227 76 2 169.304 26.9887 10.0151 -2 -2 2 
228 76 2 168.82 25.8172 8.98555 -2 -2 2 
229 77 1 231.77 33.9325 43.0301 -2 -1 1 
230 77 2 232.318 34.5894 42.5129 -2 -1 1 
231 77 2 230.942 33.7101 42.5144 -2 -1 1 
232 78 1 153.34 33.3558 6.3194 -2 -1 1 
233 78 2 152.61 32.7073 6.53646 -2 -1 1 
234 78 2 152.949 34.2682 6.19693 -2 -1 1 
235 79 1 167.856 30.1728 37.0481 -2 -1 1 
236 79 2 167.537 31.119 37.1007 -2 -1 1 
237 79 2 167.77 29.8437 36.1077 -2 -1 1 
238 80 1 230.274 45.4839 30.0342 -2 -1 0 
239 80 2 231.218 45.2346 30.2519 -2 -1 0 
240 80 2 229.683 45.2602 30.8093 -2 -1 0 
241 81 1 232.576 30.8501 15.121 -2 -1 1 
242 81 2 232.816 30.1988 15.8411 -2 -1 1 
243 81 2 233.112 31.6863 15.2361 -2 -1 1 
244 82 1 137.633 8.62853 9.2496 -2 1 2 
245 82 2 138.55 8.38255 9.56422 -2 1 2 
246 82 2 137.309 7.94146 8.59967 -2 1 2 
247 83 1 201.917 8.69541 24.8574 -2 -1 2 
248 83 2 202.416 7.83868 24.7263 -2 -1 2 
249 83 2 200.985 8.59548 24.5081 -2 -1 2 
250 84 1 199.409 28.6777 41.6674 -2 1 1 
251 84 2 198.952 27.8058 41.4921 -2 1 1 
252 84 2 200.318 28.6665 41.2515 -2 1 1 
253 85 1 155.171 9.66364 46.8132 -2 0 -1 
254 85 2 154.402 9.05006 46.6306 -2 0 -1 
255 85 2 155.86 9.55643 46.0972 -2 0 -1 
256 86 1 194.327 38.743 29.6324 -2 -1 0 
257 86 2 193.693 39.5161 29.6466 -2 -1 0 
258 86 2 193.825 37.8972 29.8144 -2 -1 0 
259 87 1 170.236 20.6197 43.9452 -2 -1 0 
260 87 2 169.745 19.9522 44.5052 -2 -1 0 
261 87 2 171.091 20.8704 44.3985 -2 -1 0 
262 88 1 209.034 17.7697 44.2445 -2 0 -2 
263 88 2 208.488 18.5466 43.9315 -2 0 -2 
264 88 2 209.484 17.3417 43.4609 -2 0 -2 
265 89 1 190.197 35.4048 19.2137 -2 -2 1 
266 89 2 191.151 35.2088 18.987 -2 -2 1 
267 89 2 190.145 35.7832 20.1379 -2 -2 1 
268 90 1 111.748 8.70548 32.8479 -2 0 0 
269 90 2 110.799 8.39113 32.8155 -2 0 0 
270 90 2 112.176 8.56503 31.9553 -2 0 0 
271 91 1 240.077 25.9197 4.85353 -2 0 0 
272 91 2 239.677 26.8341 4.78884 -2 0 0 
273 91 2 240.048 25.61 5.80395 -2 0 0 
274 92 1 129.117 8.90966 21.1125 -2 0 1 
275 92 2 129.333 8.81563 20.1408 -2 0 1 
276 92 2 128.79 9.8374 21.2929 -2 0 1 
277 93 1 56.4536 40.5005 16.7464 -1 0 0 
278 93 2 55.8021 39.8074 16.438 -1 0 0 
279 93 2 57.2023 40.571 16.0872 -1 0 0 
280 94 1 19.4964 40.479 26.7801 -1 -1 1 
281 94 2 18.7942 41.1734 26.9372 -1 -1 1 
282 94 2 20.3925 40.9188 26.7199 -1 -1 1 
283 95 1 219.749 5.55804 46.2322 -2 1 -1 
284 95 2 220.249 4.772 45.8699 -2 1 -1 
285 95 2 219.573 6.21028 45.4948 -2 1 -1 
286 96 1 223.468 13.8237 45.7266 -2 0 -1 
287 96 2 222.882 13.0139 45.7152 -2 0 -1 
288 96 2 222.939 14.6147 46.0329 -2 0 -1 
289 97 1 195.838 13.6724 37.8645 -2 0 0 
290 97 2 195.764 13.3624 36.9166 -2 0 0 
291 97 2 196.161 14.6185 37.8815 -2 0 0 
292 98 1 193.547 30.6728 39.6791 -2 -1 1 
293 98 2 193.371 30.2138 40.5499 -2 -1 1 
294 98 2 193.19 30.1147 38.93 -2 -1 1 
295 99 1 180.729 13.0889 41.1499 -2 0 0 
296 99 2 181.127 13.7728 40.5386 -2 0 0 
297 99 2 180.718 13.4439 42.0847 -2 0 0 
298 100 1 194.706 22.2397 39.0363 -2 1 0 
299 100 2 195.382 22.9292 38.7757 -2 1 0 
300 100 2 194.77 21.4586 38.4152 -2 1 0 
301 101 1 179.391 14.5419 8.15521 -2 0 0 
302 101 2 180.046 15.0674 7.61231 -2 0 0 
303 101 2 178.741 15.1659 8.58884 -2 0 0 
304 102 1 202.086 10.5801 4.53506 -2 0 0 
305 102 2 202.089 11.3525 5.17017 -2 0 0 
306 102 2 201.368 10.7137 3.85131 -2 0 0 
307 103 1 220.618 30.1056 23.5725 -2 0 1 
308 103 2 220.586 30.8501 22.9056 -2 0 1 
309 103 2 219.867 30.2092 24.224 -2 0 1 
310 104 1 32.1662 6.45296 18.7904 -1 1 1 
311 104 2 32.506 7.3862 18.6737 -1 1 1 
312 104 2 31.8115 6.34107 19.7186 -1 1 1 
313 105 1 212.318 3.99381 39.6636 -2 0 -1 
314 105 2 213.138 4.53199 39.469 -2 0 -1 
315 105 2 212.313 3.17456 39.0902 -2 0 -1 
316 106 1 203.597 29.124 12.4365 -2 0 2 
317 106 2 203.295 28.4981 11.7174 -2 0 2 
318 106 2 202.896 29.1779 13.1473 -2 0 2 
319 107 1 218.663 22.29 9.64215 -2 0 -1 
320 107 2 218.65 22.5879 10.5967 -2 0 -1 
321 107 2 218.486 23.0734 9.04612 -2 0 -1 
322 108 1 201.394 6.5155 15.3297 -2 0 2 
323 108 2 202.181 6.36019 15.9275 -2 0 2 
324 108 2 200.694 7.02764 15.8267 -2 0 2 
325 109 1 194.043 8.61508 38.5116 -2 0 1 
326 109 2 194.374 8.42113 37.5878 -2 0 1 
327 109 2 193.136 8.2116 38.6328 -2 0 1 
328 110 1 159.377 31.224 4.6947 -2 0 1 
329 110 2 160.09 30.7579 4.17175 -2 0 1 
330 110 2 158.478 30.9195 4.37773 -2 0 1 
331 111 1 195.085 25.638 4.25295 -2 0 2 
332 111 2 195.656 26.384 4.59592 -2 0 2 
333 111 2 194.964 24.953 4.97149 -2 0 2 
334 112 1 200.217 27.4522 15.3305 -2 1 0 
335 112 2 199.453 27.8463 15.8411 -2 1 0 
336 112 2 199.917 26.6116 14.8789 -2 1 0 
337 113 1 202.554 14.2033 11.6734 -2 -1 1 
338 113 2 203.329 13.7785 11.206 -2 -1 1 
339 113 2 201.701 13.8882 11.2579 -2 -1 1 
340 114 1 188.227 11.3276 40.3257 -2 0 0 
341 114 2 188.072 11.1943 41.3046 -2 0 0 
342 114 2 187.861 10.5459 39.8208 -2 0 0 
343 115 1 231.271 12.2685 23.2854 -2 0 0 
344 115 2 231.585 12.2171 24.2335 -2 0 0 
345 115 2 230.625 13.0256 23.1888 -2 0 0 
346 116 1 186.027 45.9228 36.3634 -2 -1 -1 
347 116 2 186.466 46.7739 36.0759 -2 -1 -1 
348 116 2 185.082 45.9088 36.037 -2 -1 -1 
349 117 1 166.849 44.9345 11.5686 -2 -1 1 
350 117 2 167.526 44.2232 11.3822 -2 -1 1 
351 117 2 166.678 45.4592 10.7345 -2 -1 1 
352 118 1 199.364 35.9618 24.2204 -2 0 0 
353 118 2 198.562 36.0281 24.8135 -2 0 0 
354 118 2 199.105 36.1913 23.2822 -2 0 0 
355 119 1 221.551 6.27982 34.1783 -2 0 -1 
356 119 2 220.982 6.97839 33.744 -2 0 -1 
357 119 2 222.091 5.80921 33.4809 -2 0 -1 
358 120 1 220.879 40.0052 40.3521 -2 0 -1 
359 120 2 221.546 39.9374 41.0937 -2 0 -1 
360 120 2 220.807 39.1232 39.8862 -2 0 -1 
361 121 1 16.5805 22.0088 17.7598 -1 1 0 
362 121 2 17.3422 22.1354 17.1244 -1 1 0 
363 121 2 16.8303 21.328 18.4483 -1 1 0 
364 122 1 187.857 42.969 44.2426 -2 -1 0 
365 122 2 187.328 43.4846 43.5689 -2 -1 0 
366 122 2 187.248 42.3576 44.7479 -2 -1 0 
367 123 1 200.795 38.1145 45.36 -2 0 1 
368 123 2 200.944 37.4857 44.5969 -2 0 1 
369 123 2 200.385 38.9607 45.0196 -2 0 1 
370 124 1 204.869 7.11495 15.6016 -2 0 1 
371 124 2 205.637 6.51141 15.8187 -2 0 1 
372 124 2 204.903 7.92228 16.1908 -2 0 1 
373 125 1 189.276 15.7675 36.306 -2 -1 0 
374 125 2 189.551 15.9323 37.2534 -2 -1 0 
375 125 2 190.06 15.4283 35.786 -2 -1 0 
376 126 1 168.947 18.2981 45.1982 -2 0 0 
377 126 2 169.31 17.4914 45.6642 -2 0 0 
378 126 2 168.427 18.853 45.8483 -2 0 0 
379 127 1 247.662 28.2484 10.3361 -2 0 0 
380 127 2 15.3431 27.6238 10.3088 -1 0 0 
381 127 2 247.921 29.0856 10.8175 -2 0 0 
382 128 1 218.832 13.3768 15.9546 -2 0 1 
383 128 2 219.795 13.6256 15.8436 -2 0 1 
384 128 2 218.281 14.207 16.0353 -2 0 1 
385 129 1 15.3536 24.8748 43.6005 -1 0 -1 
386 129 2 247.787 24.5832 44.2877 -2 0 -1 
387 129 2 15.0718 24.5409 42.701 -1 0 -1 
388 130 1 130.885 17.0239 31.228 -2 1 1 
389 130 2 130.792 17.3551 32.167 -2 1 1 
390 130 2 130.348 16.1882 31.1146 -2 1 1 
391 131 1 35.5179 18.8718 4.0415 -1 0 0 
392 131 2 34.8932 19.5983 4.32794 -1 0 0 
393 131 2 36.0827 18.5924 4.81801 -1 0 0 
394 132 1 191.709 33.1842 28.8822 -2 -1 1 
395 132 2 191.333 32.8185 29.7333 -2 -1 1 
396 132 2 191.427 34.1374 28.775 -2 -1 1 
397 133 1 227.513 25.9703 6.01746 -2 0 0 
398 133 2 227.257 26.413 5.15814 -2 0 0 
399 133 2 228.445 26.2344 6.26352 -2 0 0 
400 134 1 24.469 7.3842 43.6181 -1 1 -1 
401 134 2 23.9364 7.79436 42.8778 -1 1 -1 
402 134 2 25.0195 6.63216 43.2557 -1 1 -1 
403 135 1 137.548 23.3776 25.4756 -2 0 1 
404 135 2 137.505 24.3511 25.7002 -2 0 1 
405 135 2 136.997 23.1985 24.661 -2 0 1 
406 136 1 215.45 15.8877 18.4388 -2 -1 1 
407 136 2 215.135 16.6906 17.9327 -2 -1 1 
408 136 2 215.826 16.1752 19.3197 -2 -1 1 
409 137 1 221.118 11.7136 32.9831 -2 0 1 
410 137 2 220.198 11.7137 32.5909 -2 0 1 
411 137 2 221.233 12.5209 33.5617 -2 0 1 
412 138 1 201.936 11.4813 27.6744 -2 1 1 
413 138 2 201.96 11.8664 26.7519 -2 1 1 
414 138 2 201.943 10.4828 27.6191 -2 1 1 
415 139 1 218.255 28.0916 36.8083 -2 -1 1 
416 139 2 218.219 27.6301 35.9218 -2 -1 1 
417 139 2 217.668 28.9013 36.7864 -2 -1 1 
418 140 1 183.911 43.2329 40.316 -2 0 1 
419 140 2 184.197 43.7267 41.1373 -2 0 1 
420 140 2 184.404 43.591 39.5233 -2 0 1 
421 141 1 22.3858 29.3292 8.75408 -1 0 0 
422 141 2 21.7287 28.6074 8.53646 -1 0 0 
423 141 2 22.8877 29.084 9.58354 -1 0 0 
424 142 1 203.256 42.6328 24.449 -2 0 0 
425 142 2 203.554 42.2914 23.5574 -2 0 0 
426 142 2 203.975 43.2049 24.8437 -2 0 0 
427 143 1 230.628 42.0428 27.3698 -2 0 1 
428 143 2 230.355 42.3288 28.2884 -2 0 1 
429 143 2 229.813 41.8141 26.8366 -2 0 1 
430 144 1 182.144 13.1707 25.5476 -2 0 0 
431 144 2 181.862 12.4203 26.1453 -2 0 0 
432 144 2 181.716 13.0612 24.6504 -2 0 0 
433 145 1 214.292 28.3198 32.5162 -2 -1 -1 
434 145 2 214.863 27.5386 32.2652 -2 -1 -1 
435 145 2 213.359 28.0067 32.6944 -2 -1 -1 
436 146 1 17.8325 6.94509 43.2821 -1 0 0 
437 146 2 17.4638 6.80599 42.3631 -1 0 0 
438 146 2 17.9076 7.92511 43.4664 -1 0 0 
439 147 1 195.284 41.8484 3.51283 -2 -1 2 
440 147 2 195.217 41.033 4.08788 -2 -1 2 
441 147 2 195.219 41.584 46.866 -2 -1 1 
442 148 1 204.533 30.7519 41.1356 -2 -1 0 
443 148 2 205.283 30.1275 40.9152 -2 -1 0 
444 148 2 204.702 31.6397 40.7075 -2 -1 0 
445 149 1 226.722 4.76405 19.9683 -2 0 0 
446 149 2 226.315 5.40142 19.3145 -2 0 0 
447 149 2 227.349 4.14972 19.4885 -2 0 0 
448 150 1 203.127 21.0695 21.3586 -2 1 0 
449 150 2 202.467 21.815 21.4502 -2 1 0 
450 150 2 203.32 20.6825 22.2603 -2 1 0 
451 151 1 228.811 23.4526 6.03668 -2 0 1 
452 151 2 228.509 24.4054 6.0757 -2 0 1 
453 151 2 229.406 23.3235 5.24384 -2 0 1 
454 152 1 245.503 11.7842 30.2974 -2 0 1 
455 152 2 246.469 11.806 30.0401 -2 0 1 
456 152 2 245.399 11.2897 31.1603 -2 0 1 
457 153 1 17.6282 23.8993 33.5544 -1 1 0 
458 153 2 18.2423 23.4778 34.2217 -1 1 0 
459 153 2 16.8661 23.2801 33.3651 -1 1 0 
460 154 1 204.688 19.3988 46.7947 -2 -1 0 
461 154 2 203.887 19.3518 3.07577 -2 -1 1 
462 154 2 205.106 20.3042 46.869 -2 -1 0 
463 155 1 238.239 32.5086 11.3883 -2 0 -2 
464 155 2 239.065 32.8404 10.9332 -2 0 -2 
465 155 2 238.379 32.5137 12.3785 -2 0 -2 
466 156 1 208.972 6.89493 46.9626 -2 1 0 
467 156 2 208.382 6.59113 3.39561 -2 1 1 
468 156 2 208.587 6.59128 46.0909 -2 1 0 
469 157 1 193.21 13.5743 21.2713 -2 0 1 
470 157 2 192.86 13.1289 20.4469 -2 0 1 
471 157 2 194.202 13.4565 21.3189 -2 0 1 
472 158 1 216.569 17.1134 35.9651 -2 -1 0 
473 158 2 216.165 16.6974 35.1508 -2 -1 0 
474 158 2 216.733 18.0855 35.7966 -2 -1 0 
475 159 1 228.726 28.808 46.3434 -2 -1 -1 
476 159 2 228.773 29.3595 45.5106 -2 -1 -1 
477 159 2 229.035 29.3536 47.1224 -2 -1 -1 
478 160 1 236.051 26.0607 30.0128 -2 -1 0 
479 160 2 237.033 25.9977 30.1874 -2 -1 0 
480 160 2 235.617 26.5963 30.7375 -2 -1 0 
481 161 1 198.207 32.8866 32.6097 -2 -1 0 
482 161 2 197.694 32.0354 32.723 -2 -1 0 
483 161 2 198.424 33.2671 33.5086 -2 -1 0 
484 162 1 176.825 29.3071 20.3399 -2 1 0 
485 162 2 177.046 29.0814 19.3911 -2 1 0 
486 162 2 177.664 29.5326 20.8335 -2 1 0 
487 163 1 188.759 36.6158 8.41697 -2 -1 1 
488 163 2 188.346 37.1857 9.12739 -2 -1 1 
489 163 2 188.779 37.1209 7.55414 -2 -1 1 
490 164 1 147.248 7.18701 30.1779 -2 1 1 
491 164 2 146.345 7.40544 30.5484 -2 1 1 
492 164 2 147.954 7.52921 30.7976 -2 1 1 
493 165 1 203.844 34.4679 11.9175 -2 -1 1 
494 165 2 204.496 35.0491 11.4301 -2 -1 1 
495 165 2 203.83 33.5596 11.4993 -2 -1 1 
496 166 1 202.792 25.7708 6.65359 -2 -2 1 
497 166 2 202.687 26.765 6.67605 -2 -2 1 
498 166 2 203.3 25.5077 5.83344 -2 -2 1 
499 167 1 233.222 3.63636 10.5094 -2 1 0 
500 167 2 233.431 2.8777 9.89207 -2 1 0 
501 167 2 232.374 3.44228 11.0015 -2 1 0 
502 168 1 202.831 41.4073 36.4741 -2 1 1 
503 168 2 202.853 42.3089 36.0421 -2 1 1 
504 168 2 203.67 40.9105 36.2505 -2 1 1 
505 169 1 229.884 21.2677 32.3339 -2 0 -1 
506 169 2 229.843 22.2664 32.3658 -2 0 -1 
507 169 2 230.816 20.9653 32.5329 -2 0 -1 
508 170 1 183.673 13.636 32.436 -2 1 -1 
509 170 2 183.085 14.3636 32.7892 -2 1 -1 
510 170 2 183.77 13.737 31.4458 -2 1 -1 
511 171 1 176.64 21.4018 25.7929 -2 0 -1 
512 171 2 176.843 20.831 24.9974 -2 0 -1 
513 171 2 176.383 20.8194 26.5643 -2 0 -1 
514 172 1 184.699 11.976 37.102 -2 -1 0 
515 172 2 184.727 12.126 38.0903 -2 -1 0 
516 172 2 185.624 11.7965 36.7661 -2 -1 0 
517 173 1 244.226 45.5849 27.6791 -2 0 -1 
518 173 2 244.177 44.7495 27.1316 -2 0 -1 
519 173 2 244.836 46.2403 27.2332 -2 0 -1 
520 174 1 230.901 20.8529 3.46986 -2 0 2 
521 174 2 230.511 21.7145 3.79493 -2 0 2 
522 174 2 231.322 20.3676 4.23602 -2 0 2 
523 175 1 166.276 20.0036 36.1169 -2 -1 0 
524 175 2 165.564 19.3303 35.9168 -2 -1 0 
525 175 2 165.973 20.908 35.8159 -2 -1 0 
526 176 1 194.606 13.2697 40.1463 -2 0 0 
527 176 2 194.866 12.5274 40.7637 -2 0 0 
528 176 2 195.082 13.16 39.2737 -2 0 0 
529 177 1 147.728 15.7103 6.89143 -2 1 2 
530 177 2 147.086 16.2729 6.37141 -2 1 2 
531 177 2 148.403 15.3129 6.26902 -2 1 2 
532 178 1 207.717 29.5644 34.5092 -2 1 1 
533 178 2 208.55 30.0065 34.8424 -2 1 1 
534 178 2 207.961 28.7805 33.9384 -2 1 1 
535 179 1 202.065 29.0219 40.7122 -2 -1 1 
536 179 2 202.849 29.4811 41.1296 -2 -1 1 
537 179 2 202.378 28.209 40.2208 -2 -1 1 
538 180 1 234.239 38.8834 11.0756 -2 1 -1 
539 180 2 233.904 37.9622 10.8781 -2 1 -1 
540 180 2 234.099 39.0885 12.0443 -2 1 -1 
541 181 1 218.744 36.346 47.1316 -2 0 0 
542 181 2 218.099 37.0692 3.06401 -2 0 1 
543 181 2 219.144 36.5479 46.2375 -2 0 0 
544 182 1 159.351 17.2883 21.3206 -2 -1 2 
545 182 2 159.708 16.3775 21.1131 -2 -1 2 
546 182 2 158.763 17.5946 20.5717 -2 -1 2 
547 183 1 152.337 19.9575 36.752 -2 0 2 
548 183 2 153.279 20.1984 36.9827 -2 0 2 
549 183 2 152.155 20.1979 35.7985 -2 0 2 
550 184 1 228.989 17.2593 42.7015 -2 -1 -1 
551 184 2 229.792 16.7204 42.4462 -2 -1 -1 
552 184 2 229.28 18.1681 43.0012 -2 -1 -1 
553 185 1 170.982 4.46296 29.1478 -2 1 0 
554 185 2 171.802 4.99905 28.948 -2 1 0 
555 185 2 170.303 4.61084 28.4281 -2 1 0 
556 186 1 22.92 38.7871 18.6209 -1 -1 0 
557 186 2 23.1515 39.3833 17.8522 -1 -1 0 
558 186 2 22.0392 39.0647 19.0045 -1 -1 0 
559 187 1 243.082 18.5505 15.0932 -2 1 -1 
560 187 2 242.279 18.0262 15.376 -2 1 -1 
561 187 2 243.226 19.3092 15.7286 -2 1 -1 
562 188 1 200.444 22.268 19.5481 -2 0 0 
563 188 2 200.386 21.3192 19.2373 -2 0 0 
564 188 2 200.434 22.8792 18.7567 -2 0 0 
565 189 1 210.073 18.3547 37.5289 -2 1 0 
566 189 2 211.048 18.5147 37.3795 -2 1 0 
567 189 2 209.546 18.8182 36.8163 -2 1 0 
568 190 1 191.905 10.6369 31.3817 -2 1 0 
569 190 2 191.554 10.8047 30.4603 -2 1 0 
570 190 2 191.175 10.7887 32.0486 -2 1 0 
571 191 1 33.7207 32.8597 44.3911 -1 0 -1 
572 191 2 33.3822 32.0213 44.8184 -1 0 -1 
573 191 2 33.7899 32.7254 43.4025 -1 0 -1 
574 192 1 238.127 43.6788 15.1061 -2 0 1 
575 192 2 238.178 44.0817 16.0199 -2 0 1 
576 192 2 238.754 42.9025 15.0485 -2 0 1 
577 193 1 45.1432 21.1774 23.7793 -1 0 0 
578 193 2 45.5347 20.3015 24.0614 -1 0 0 
579 193 2 44.2071 21.2504 24.1235 -1 0 0 
580 194 1 17.3785 41.5329 20.9183 -1 -1 1 
581 194 2 18.1217 41.7801 20.2965 -1 -1 1 
582 194 2 17.7553 41.3171 21.8191 -1 -1 1 
583 195 1 234.091 41.2971 3.97298 -2 -1 2 
584 195 2 234.601 41.7576 4.69939 -2 -1 2 
585 195 2 233.15 41.6369 3.9592 -2 -1 2 
586 196 1 202.282 30.6397 32.7928 -2 -1 0 
587 196 2 202.226 30.9725 31.8515 -2 -1 0 
588 196 2 202.059 31.3833 33.4231 -2 -1 0 
589 197 1 204.538 9.54164 17.0431 -2 -1 -1 
590 197 2 203.615 9.6323 17.4189 -2 -1 -1 
591 197 2 204.699 10.2702 16.3775 -2 -1 -1 
592 198 1 240.124 34.1144 44.8688 -2 -1 -1 
593 198 2 239.336 33.5485 44.626 -2 -1 -1 
594 198 2 240.846 33.5353 45.2465 -2 -1 -1 
595 199 1 224.279 5.50943 47.0075 -2 0 1 
596 199 2 225.087 5.87453 46.5451 -2 0 1 
597 199 2 223.763 6.26055 3.10289 -2 0 2 
598 200 1 199.86 33.1283 43.2654 -2 -1 0 
599 200 2 199.412 32.5625 42.5736 -2 -1 0 
600 200 2 200.7 33.5167 42.885 -2 -1 0 
601 201 1 19.3103 37.6956 37.1065 -1 -2 0 
602 201 2 20.0314 38.3863 37.1607 -1 -2 0 
603 201 2 18.7502 37.733 37.9341 -1 -2 0 
604 202 1 147.934 13.8303 37.1088 -2 0 0 
605 202 2 148.594 14.3126 36.5329 -2 0 0 
606 202 2 147.531 14.471 37.7625 -2 0 0 
607 203 1 238.125 26.3189 36.1406 -2 0 -1 
608 203 2 238.077 26.1465 35.1568 -2 0 -1 
609 203 2 238.723 25.641 36.5689 -2 0 -1 
610 204 1 209.561 39.2264 5.44252 -2 0 0 
611 204 2 209.762 40.206 5.45441 -2 0 0 
612 204 2 209.954 38.8156 4.61984 -2 0 0 
613 205 1 177.547 42.3572 45.1901 -2 0 0 
614 205 2 177.302 41.746 44.4374 -2 0 0 
615 205 2 176.715 42.7297 45.6009 -2 0 0 
616 206 1 208.74 5.36736 29.3515 -2 0 -1 
617 206 2 209.561 4.8477 29.5869 -2 0 -1 
618 206 2 207.938 4.91882 29.745 -2 0 -1 
619 207 1 201.114 33.9527 21.5792 -2 -2 0 
620 207 2 201.081 33.7762 22.5629 -2 -2 0 
621 207 2 201.965 34.4285 21.3549 -2 -2 0 
622 208 1 173.726 14.2284 33.631 -2 -2 1 
623 208 2 174.495 14.8632 33.7088 -2 -2 1 
624 208 2 174.071 13.3075 33.45 -2 -2 1 
625 209 1 211.548 38.463 38.9069 -2 0 0 
626 209 2 210.865 38.8436 39.5302 -2 0 0 
627 209 2 212.454 38.5319 39.3235 -2 0 0 
628 210 1 227.129 41.0154 31.6465 -2 -2 0 
629 210 2 227.922 40.728 31.1087 -2 -2 0 
630 210 2 227.42 41.2358 32.5774 -2 -2 0 
631 211 1 228.753 18.7172 47.0915 -2 -1 0 
632 211 2 229.059 19.5931 46.7184 -2 -1 0 
633 211 2 227.858 18.4865 46.7097 -2 -1 0 
634 212 1 180.761 33.8045 29.0775 -2 -1 1 
635 212 2 179.826 34.1045 29.2689 -2 -1 1 
636 212 2 181.358 34.0734 29.8328 -2 -1 1 
637 213 1 233.975 24.4064 30.2819 -2 -1 -1 
638 213 2 234.785 24.9929 30.2727 -2 -1 -1 
639 213 2 233.178 24.9337 29.9868 -2 -1 -1 
640 214 1 186.642 42.3183 27.4212 -2 -1 0 
641 214 2 185.946 43.0337 27.3613 -2 -1 0 
642 214 2 187.476 42.626 26.9637 -2 -1 0 
643 215 1 56.7145 8.53452 33.8975 -1 -1 0 
644 215 2 57.7016 8.51395 34.0564 -1 -1 0 
645 215 2 56.305 7.68644 34.2338 -1 -1 0 
646 216 1 223.373 36.8935 11.8601 -2 -1 0 
647 216 2 223.451 37.8905 11.8534 -2 -1 0 
648 216 2 222.78 36.6105 12.6135 -2 -1 0 
649 217 1 213.004 10.9843 30.0273 -2 -1 -1 
650 217 2 213.24 11.2959 29.1067 -2 -1 -1 
651 217 2 212.389 11.646 30.4561 -2 -1 -1 
652 218 1 223.958 6.44173 32.3315 -2 -1 0 
653 218 2 224.784 6.1688 31.8381 -2 -1 0 
654 218 2 224.2 7.09285 33.0511 -2 -1 0 
655 219 1 214.128 25.3129 8.27953 -2 -1 0 
656 219 2 214.716 24.9242 8.98892 -2 -1 0 
657 219 2 213.17 25.2226 8.55368 -2 -1 0 
658 220 1 219.435 13.6406 30.2337 -2 0 0 
659 220 2 219.283 14.6179 30.3815 -2 0 0 
660 220 2 218.788 13.1152 30.7855 -2 0 0 
661 221 1 194.675 25.1239 36.8074 -2 -1 1 
662 221 2 194.404 25.4067 35.887 -2 -1 1 
663 221 2 194.009 25.4661 37.4703 -2 -1 1 
664 222 1 185.438 12.2073 25.2472 -2 0 1 
665 222 2 186.415 11.9905 25.2437 -2 0 1 
666 222 2 185.008 11.8182 24.4329 -2 0 1 
667 223 1 237.158 9.39816 22.9733 -2 0 -1 
668 223 2 237.913 8.92208 23.4247 -2 0 -1 
669 223 2 236.746 8.7963 22.2893 -2 0 -1 
670 224 1 43.3872 27.4094 45.5939 -1 0 1 
671 224 2 42.6741 27.162 46.2499 -1 0 1 
672 224 2 43.1634 28.2892 45.1743 -1 0 1 
673 225 1 239.118 13.2496 10.2117 -2 0 0 
674 225 2 240.108 13.3559 10.3091 -2 0 0 
675 225 2 238.9 12.2858 10.058 -2 0 0 
676 226 1 156.83 27.3423 30.5433 -2 1 0 
677 226 2 157.536 27.6695 29.9151 -2 1 0 
678 226 2 156.859 27.8792 31.3864 -2 1 0 
679 227 1 184.98 44.8426 30.1424 -2 -2 0 
680 227 2 184.003 44.8513 30.3585 -2 -2 0 
681 227 2 185.102 44.895 29.1513 -2 -2 0 
682 228 1 210.98 35.0498 26.744 -2 0 0 
683 228 2 211.848 34.5947 26.5444 -2 0 0 
684 228 2 211.088 35.6338 27.5486 -2 0 0 
685 229 1 131.227 21.4772 6.30094 -2 1 -1 
686 229 2 131.636 20.9272 7.02935 -2 1 -1 
687 229 2 131.456 22.4403 6.44205 -2 1 -1 
688 230 1 216.071 3.58156 18.8696 -2 -1 0 
689 230 2 216.916 3.27833 19.3095 -2 -1 0 
690 230 2 215.979 3.13411 17.98 -2 -1 0 
691 231 1 190.406 25.0897 34.7868 -2 -2 0 
692 231 2 189.908 25.3917 33.9735 -2 -2 0 
693 231 2 191.388 25.2022 34.6376 -2 -2 0 
694 232 1 196.56 23.7201 30.4746 -2 0 0 
695 232 2 197.406 23.9959 30.0186 -2 0 0 
696 232 2 196.553 24.0775 31.4085 -2 0 0 
697 233 1 213.362 38.1063 30.5825 -2 -1 1 
698 233 2 214.348 37.9433 30.5901 -2 -1 1 
699 233 2 213.181 39.0436 30.2843 -2 -1 1 
700 234 1 235.605 24.1954 13.4223 -2 -1 2 
701 234 2 235.638 23.6473 14.2581 -2 -1 2 
702 234 2 235.975 23.6642 12.6604 -2 -1 2 
703 235 1 19.2882 8.46888 5.86009 -1 0 1 
704 235 2 19.3029 7.46986 5.81822 -1 0 1 
705 235 2 20.2034 8.824 5.66954 -1 0 1 
706 236 1 228.81 29.8664 23.166 -2 -1 1 
707 236 2 228.073 30.3936 22.7438 -2 -1 1 
708 236 2 228.714 28.902 22.9194 -2 -1 1 
709 237 1 209.392 16.6945 46.7303 -2 0 0 
710 237 2 209.208 15.7205 46.5982 -2 0 0 
711 237 2 209.285 17.175 45.8598 -2 0 0 
712 238 1 176.934 27.1088 13.2363 -2 -1 2 
713 238 2 177.009 26.3512 12.5878 -2 -1 2 
714 238 2 176.024 27.5178 13.1676 -2 -1 2 
715 239 1 225.323 9.57949 19.721 -2 -1 0 