LAMMPS data file via write_data, version 24 Apr 2013, timestep = 125000

12061 atoms
3 atom types
8140 bonds
3 bond types
4517 angles
4 angle types
888 dihedrals
3 dihedral types
397 impropers
3 improper types

-80.5935 80.5935 xlo xhi
-16.1187 16.1187 ylo yhi
-16.1187 16.1187 zlo zhi

Masses

1 1.00797
2 12.0112
3 15.9994

Bond Coeffs

1 1.101 345 -691.89 844.6
2 1.53 299.67 -501.77 679.81
3 0.96 493.848 0 0

Angle Coeffs

1 107.66 39.641 -12.921 -2.4318
2 110.77 41.453 -10.604 5.129
3 112.67 39.516 -7.443 -9.5583
4 109 58.5 0 0

BondBond Coeffs

1 5.3316 1.101 1.101
2 3.3872 1.101 1.53
3 0 1.53 1.53
4 0 0.96 0.96

BondAngle Coeffs

1 18.103 18.103 1.101 1.101x
2 11.421 20.754 1.101 1.53x
3 8.016 8.016 1.53 1.53x
4 0 0 0.96 0.96x

Atoms

7193 2299 3 -0.82 -75.6664 -9.8353 -10.7867 1 0 1
7195 2299 1 0.41 -76.1859 -10.1409 -10.0544 1 0 1
11698 3800 1 0.41 -76.8981 -11.4931 -11.908 0 1 1
5892 1865 1 0.41 -79.4482 -14.7352 -12.9969 1 0 -1
5891 1865 3 -0.82 -78.5497 -14.8738 -13.0328 1 0 -1
5893 1865 1 0.41 -78.1883 -14.0305 -13.4763 1 0 -1
11697 3800 1 0.41 -77.4608 -11.1882 -13.3375 0 1 1
11696 3800 3 -0.82 -77.315 -11.9147 -12.6736 0 1 1
4409 1371 3 -0.82 -74.9386 -11.1316 -15.3084 1 1 1
4410 1371 1 0.41 -75.8593 -11.1308 -14.8961 1 1 1
1327 343 1 0.41 -74.7531 -13.262 -11.2118 1 1 1
7168 2290 1 0.41 -75.8893 -15.3877 -12.8045 0 0 0
7152 2285 1 0.41 -75.1932 -14.3149 -15.4544 0 1 2
5532 1745 1 0.41 -80.3116 -11.9291 -15.5913 0 1 1
5531 1745 3 -0.82 -80.4286 -11.1297 -15.0526 0 1 1
7166 2290 3 -0.82 -74.9443 -15.6425 -12.8557 0 0 0
10002 3235 1 0.41 -71.5667 -11.0355 -12.8339 1 1 1
10003 3235 1 0.41 -72.8088 -11.3144 -13.7086 1 1 1
10001 3235 3 -0.82 -72.0954 -10.6791 -13.5648 1 1 1
2924 876 3 -0.82 -69.8333 -13.7328 -14.3759 1 0 0
2925 876 1 0.41 -70.1441 -13.1847 -13.6865 1 0 0
11609 3771 3 -0.82 -68.2548 -11.8255 -12.4049 1 0 1
11610 3771 1 0.41 -68.3266 -10.882 -12.6315 1 0 1
2588 764 3 -0.82 -68.7818 -15.0357 -10.6698 0 1 -1
2589 764 1 0.41 -69.3338 -15.6636 -10.1937 0 1 -1
1325 343 3 -0.82 -73.8997 -12.7429 -11.1255 1 1 1
1326 343 1 0.41 -74.0508 -11.8484 -10.7414 1 1 1
1183 295 1 0.41 -69.8281 -12.2629 -10.1905 1 1 0
2926 876 1 0.41 -68.8731 -13.8982 -14.2411 1 0 0
4191 1298 1 0.41 -72.2189 -15.3715 -15.1055 0 1 0
4190 1298 3 -0.82 -72.886 -14.7846 -15.4741 0 1 0
4192 1298 1 0.41 -72.5312 -13.9092 -15.594 0 1 0
6421 2041 1 0.41 -65.3139 -12.7079 -14.9939 0 1 1
6419 2041 3 -0.82 -65.6695 -13.4542 -15.4833 0 1 1
6420 2041 1 0.41 -65.1618 -14.1684 -15.1258 0 1 1
11611 3771 1 0.41 -67.3333 -12.1334 -12.4978 1 0 1
2590 764 1 0.41 -67.8602 -15.2927 -10.5604 0 1 -1
9396 3033 1 0.41 -64.0806 -11.0563 -12.6049 1 0 0
9397 3033 1 0.41 -62.8545 -11.8323 -13.0854 1 0 0
5878 1860 1 0.41 -62.5533 -15.2507 -14.9228 1 0 1
5877 1860 1 0.41 -62.9668 -13.898 -15.6567 1 0 1
5876 1860 3 -0.82 -62.7571 -14.291 -14.786 1 0 1
2201 635 3 -0.82 -66.2615 -10.1614 -15.045 1 1 0
2203 635 1 0.41 -65.3795 -10.0186 -15.3416 1 1 0
9395 3033 3 -0.82 -63.733 -11.5417 -13.3024 1 0 0
5383 1695 1 0.41 -67.9543 -11.9255 -15.7167 0 1 0
1702 468 1 0.41 -66.5723 -12.561 -10.3122 0 0 -1
7133 2279 3 -0.82 -65.0276 -14.627 -10.7325 0 2 -1
7134 2279 1 0.41 -64.8597 -15.3797 -10.1795 0 2 -1
7135 2279 1 0.41 -64.2522 -14.1149 -10.5855 0 2 -1
10737 3480 1 0.41 -61.2209 -13.0772 -12.1469 1 1 1
1230 311 1 0.41 -57.0404 -15.0749 -11.1465 0 -1 1
1231 311 1 0.41 -56.2506 -14.3435 -10.0748 0 -1 1
1229 311 3 -0.82 -56.9271 -14.9854 -10.1594 0 -1 1
10738 3480 1 0.41 -59.9548 -13.7542 -11.5774 1 1 1
10736 3480 3 -0.82 -60.7621 -13.2536 -11.3508 1 1 1
7264 2322 1 0.41 -56.4654 -11.96 -13.4961 0 0 0
6854 2186 3 -0.82 -59.1326 -15.6959 -13.3517 0 2 1
7263 2322 1 0.41 -56.7216 -10.543 -13.2568 0 0 0
7262 2322 3 -0.82 -57.223 -11.3888 -13.3582 0 0 0
10678 3460 1 0.41 -56.4161 -11.2289 -10.2861 0 0 1
10676 3460 3 -0.82 -55.938 -12.005 -9.95133 0 0 1
5070 1591 1 0.41 -58.7421 -10.2329 -11.1333 0 0 0
5069 1591 3 -0.82 -59.0764 -10.0399 -10.2419 0 0 0
5071 1591 1 0.41 -60.0149 -10.3376 -10.2897 0 0 0
5211 1638 1 0.41 -59.8679 -11.6692 -14.675 0 1 -1
5210 1638 3 -0.82 -60.7857 -11.9807 -14.6225 0 1 -1
5212 1638 1 0.41 -61.0214 -12.4645 -15.4235 0 1 -1
6856 2186 1 0.41 -59.3498 -15.6255 -14.2676 0 2 1
8757 2820 1 0.41 -55.8685 -10.8064 -16.0263 0 0 1
2580 761 1 0.41 -61.6595 -10.1107 -15.5248 0 1 -1
2421 708 1 0.41 -54.2065 -13.3699 -14.8808 0 2 0
6550 2084 1 0.41 -51.3371 -14.5465 -12.854 0 1 1
6548 2084 3 -0.82 -51.0028 -14.0366 -13.6375 0 1 1
6549 2084 1 0.41 -50.1321 -14.495 -13.8143 0 1 1
2420 708 3 -0.82 -53.9479 -12.6788 -14.2587 0 2 0
5947 1883 1 0.41 -53.3515 -10.6515 -12.1776 0 -1 0
5946 1883 1 0.41 -53.2169 -10.4394 -10.6108 0 -1 0
5945 1883 3 -0.82 -53.3298 -10.0013 -11.5058 0 -1 0
2422 708 1 0.41 -52.9849 -12.4559 -14.4473 0 2 0
3150 951 1 0.41 -49.7281 -11.7505 -13.4244 0 0 0
10217 3307 3 -0.82 -52.1306 -10.0394 -14.4261 0 -1 1
10219 3307 1 0.41 -51.6028 -9.75926 -13.6568 0 -1 1
10218 3307 1 0.41 -51.5885 -9.93929 -15.1756 0 -1 1
4208 1304 3 -0.82 -51.9887 -15.9114 -11.1668 0 0 0
2691 798 1 0.41 -53.5259 -15.7371 -13.0339 0 1 0
4193 1299 3 -0.82 -52.2269 -12.8597 -9.92729 0 0 -1
4195 1299 1 0.41 -51.6209 -13.4507 -10.4081 0 0 -1
6684 2129 1 0.41 -50.0697 -11.2394 -10.3004 0 0 0
4209 1304 1 0.41 -52.244 -15.6781 -10.2679 0 0 0
9776 3160 3 -0.82 -47.6606 -14.6191 -11.7833 0 0 1
9778 3160 1 0.41 -47.6718 -15.3343 -12.4262 0 0 1
3151 951 1 0.41 -48.9937 -10.478 -12.8285 0 0 0
3149 951 3 -0.82 -49.5351 -10.7968 -13.5558 0 0 0
9636 3113 1 0.41 -47.2462 -14.9984 -14.4669 0 0 1
9635 3113 3 -0.82 -47.8521 -14.8381 -15.1711 0 0 1
9637 3113 1 0.41 -47.4178 -15.2672 -15.8987 0 0 1
2106 603 1 0.41 -45.9834 -10.7492 -9.98174 0 0 -1
9064 2922 1 0.41 -44.1868 -12.1276 -12.7841 0 0 1
938 214 3 -0.82 -45.3699 -13.7555 -10.0214 0 0 0
9062 2922 3 -0.82 -43.9554 -13.0137 -13.0451 0 0 1
9063 2922 1 0.41 -44.691 -13.3593 -13.5799 0 0 1
940 214 1 0.41 -45.1305 -13.0679 -10.6363 0 0 0
1475 393 3 -0.82 -46.4059 -10.2321 -12.8197 1 1 -1
1476 393 1 0.41 -47.053 -10.0153 -13.4607 1 1 -1
9777 3160 1 0.41 -48.1466 -14.9178 -11.0291 0 0 1
10099 3267 1 0.41 -44.8431 -16.0698 -14.4824 0 0 2
8284 2662 1 0.41 -41.5154 -12.6578 -11.5292 0 0 1
8283 2662 1 0.41 -40.1795 -12.9244 -12.1063 0 0 1
8282 2662 3 -0.82 -40.6739 -12.9908 -11.3 0 0 1
2148 617 1 0.41 -40.7472 -15.8264 -12.5189 0 0 0
10932 3545 1 0.41 -39.0689 -10.7196 -15.9194 0 -1 0
10931 3545 3 -0.82 -39.2064 -11.525 -15.3487 0 -1 0
1843 515 1 0.41 -37.8549 -15.6905 -10.4777 0 0 0
6378 2027 1 0.41 -38.3972 -13.1511 -9.82959 0 0 -1
6377 2027 3 -0.82 -37.5136 -13.2447 -10.1645 0 0 -1
6379 2027 1 0.41 -37.388 -12.7092 -10.9344 0 0 -1
6416 2040 3 -0.82 -37.9175 -14.1002 -13.6619 0 0 0
6418 2040 1 0.41 -38.4908 -14.7495 -14.0211 0 0 0
10933 3545 1 0.41 -40.0895 -11.6173 -15.0879 0 -1 0
5380 1694 1 0.41 -37.5602 -11.258 -13.5062 0 1 0
9346 3016 1 0.41 -43.0037 -10.039 -11.8747 0 -1 0
9344 3016 3 -0.82 -42.6682 -10.4341 -11.0917 0 -1 0
9345 3016 1 0.41 -43.2161 -10.1456 -10.3609 0 -1 0
10810 3504 1 0.41 -42.9677 -11.8419 -15.417 0 0 2
4933 1545 1 0.41 -41.6812 -14.9783 -15.655 0 0 1
6542 2082 3 -0.82 -31.6431 -13.8371 -9.98123 0 0 0
6544 2082 1 0.41 -31.9841 -14.7415 -9.72794 0 0 0
8889 2864 1 0.41 -31.0472 -10.8631 -10.2574 0 1 2
4811 1505 3 -0.82 -31.6734 -9.91387 -15.1141 0 1 1
4812 1505 1 0.41 -32.3199 -10.334 -14.5048 0 1 1
5378 1694 3 -0.82 -36.9532 -10.7581 -12.9124 0 1 0
5379 1694 1 0.41 -36.043 -10.8888 -13.1603 0 1 0
2870 858 3 -0.82 -35.0246 -15.2675 -11.0011 0 0 -1
4303 1335 1 0.41 -32.5269 -15.7809 -12.5959 0 0 0
2871 858 1 0.41 -35.6453 -14.5613 -11.1138 0 0 -1
4302 1335 1 0.41 -33.3995 -14.4806 -12.6592 0 0 0
4301 1335 3 -0.82 -32.9 -15.1096 -13.1984 0 0 0
2872 858 1 0.41 -35.1565 -15.665 -10.1669 0 0 -1
6417 2040 1 0.41 -37.0683 -14.2265 -14.1721 0 0 0
5180 1628 3 -0.82 -34.6523 -15.1035 -15.9036 0 0 1
11079 3594 1 0.41 -34.1683 -12.7774 -14.5824 0 1 1
11078 3594 3 -0.82 -34.2323 -11.8123 -14.4559 0 1 1
11080 3594 1 0.41 -34.7482 -11.6074 -15.2805 0 1 1
5182 1628 1 0.41 -33.921 -15.5584 -15.4712 0 0 1
6543 2082 1 0.41 -30.6777 -13.9196 -9.9277 0 0 0
8888 2864 3 -0.82 -30.7028 -10.1208 -9.69238 0 1 2
37 1 1 0 -26.4837 -13.0237 -9.90165 0 0 0
39 1 2 0 -27.4575 -13.4917 -10.1099 0 0 0
36 1 2 0 -27.3166 -14.7186 -11.0738 0 0 0
35 1 1 0 -26.6524 -15.504 -10.5786 0 0 0
34 1 1 0 -28.3594 -15.1189 -11.2037 0 0 0
28 1 1 0 -27.771 -15.8683 -13.3661 0 0 0
31 1 1 0 -25.7013 -13.8461 -12.3343 0 0 0
33 1 2 0 -26.6992 -14.2938 -12.3708 0 0 0
32 1 1 0 -27.3113 -13.4886 -12.776 0 0 0
38 1 1 0 -28.1528 -12.7069 -10.4823 0 0 0
30 1 2 0 -26.7186 -15.5847 -13.1924 0 0 0
27 1 2 0 -25.9499 -15.4434 -14.5295 0 0 0
26 1 1 0 -24.9932 -14.8869 -14.3765 0 0 0
4954 1552 1 0.41 -28.2153 -10.2801 -11.7261 0 0 0
4953 1552 1 0.41 -28.7139 -11.2508 -12.8531 0 0 0
4952 1552 3 -0.82 -28.6144 -10.3349 -12.5795 0 0 0
11232 3645 1 0.41 -29.75 -13.5826 -13.8529 0 0 1
11233 3645 1 0.41 -30.9418 -13.6396 -12.7797 0 0 1
11231 3645 3 -0.82 -30.0338 -13.3849 -12.957 0 0 1
23 1 1 0 -27.3514 -13.9132 -15.1649 0 0 0
24 1 2 0 -26.6836 -14.7161 -15.6332 0 0 0
22 1 1 0 -27.4061 -15.3833 -16.0986 0 0 0
9573 3092 1 0.41 -29.1728 -10.4667 -15.745 0 1 1
2093 599 3 -0.82 -23.1576 -15.733 -11.6966 0 0 0
8570 2758 3 -0.82 -23.4827 -11.8008 -11.4405 0 1 2
8572 2758 1 0.41 -23.4772 -12.3325 -10.629 0 1 2
2094 599 1 0.41 -23.3238 -14.7892 -11.5337 0 0 0
5933 1879 3 -0.82 -24.4462 -11.1528 -14.6099 0 -2 0
5934 1879 1 0.41 -24.0323 -12.0095 -14.3799 0 -2 0
5935 1879 1 0.41 -24.0619 -10.4793 -14.0054 0 -2 0
8571 2758 1 0.41 -24.3999 -11.9061 -11.7179 0 1 2
916 206 1 0.41 -21.3062 -11.8587 -10.1644 0 -1 1
7132 2278 1 0.41 -23.6288 -9.77489 -10.2524 0 -1 1
7854 2519 1 0.41 -19.0953 -15.2462 -14.5695 0 -1 1
7853 2519 3 -0.82 -18.6953 -16.084 -14.7873 0 -1 1
1107 270 1 0.41 -17.0457 -10.1551 -12.7477 0 2 0
11409 3704 1 0.41 -14.8167 -14.9601 -13.0942 0 0 1
1108 270 1 0.41 -18.0993 -10.9564 -13.376 0 2 0
1106 270 3 -0.82 -17.6328 -10.1394 -13.4773 0 2 0
11408 3704 3 -0.82 -15.2624 -14.8077 -12.254 0 0 1
11410 3704 1 0.41 -15.3025 -15.6466 -11.7905 0 0 1
7700 2468 3 -0.82 -18.3102 -12.5019 -11.3967 0 -1 0
7702 2468 1 0.41 -18.3843 -12.2507 -10.468 0 -1 0
6860 2188 3 -0.82 -14.142 -12.2975 -10.7904 0 0 -1
9750 3151 1 0.41 -12.8923 -11.1691 -15.2539 0 1 1
9749 3151 3 -0.82 -13.4888 -11.8057 -14.7123 0 1 1
6861 2188 1 0.41 -14.4681 -12.3858 -11.6964 0 0 -1
6862 2188 1 0.41 -14.9211 -12.5241 -10.3157 0 0 -1
11555 3753 3 -0.82 -16.0668 -9.90938 -10.296 0 1 1
9751 3151 1 0.41 -14.3068 -12.0815 -15.2045 0 1 1
7102 2268 1 0.41 -13.0501 -10.2817 -11.2673 0 0 1
7701 2468 1 0.41 -18.0063 -13.4523 -11.4028 0 -1 0
6205 1969 1 0.41 -11.1769 -15.4694 -15.6746 0 1 1
4754 1486 3 -0.82 -9.7086 -12.1659 -10.2898 0 1 1
4755 1486 1 0.41 -9.97682 -11.2796 -10.0995 0 1 1
10636 3446 1 0.41 -7.26486 -14.1276 -12.3532 0 0 1
10634 3446 3 -0.82 -7.24648 -13.8159 -11.4302 0 0 1
10635 3446 1 0.41 -8.11364 -13.8868 -11.0722 0 0 1
5370 1691 1 0.41 -7.11034 -15.7747 -16.0175 0 2 1
3410 1038 3 -0.82 -8.71927 -15.9411 -14.3059 0 1 1
3411 1038 1 0.41 -8.36375 -16.1125 -13.376 0 1 1
4608 1437 1 0.41 -12.2011 -15.5338 -12.1375 0 -1 0
4607 1437 3 -0.82 -11.216 -15.4705 -12.1472 0 -1 0
4609 1437 1 0.41 -10.9722 -14.5363 -12.278 0 -1 0
9885 3196 1 0.41 -9.33561 -11.3952 -12.4351 0 1 1
9884 3196 3 -0.82 -10.0297 -11.6763 -13.0438 0 1 1
9886 3196 1 0.41 -10.833 -11.4755 -12.6716 0 1 1
5371 1691 1 0.41 -6.81855 -14.3022 -15.7981 0 2 1
5369 1691 3 -0.82 -6.39291 -15.1009 -16.0638 0 2 1
8138 2614 3 -0.82 -4.79295 -11.0633 -12.3899 0 0 0
8140 2614 1 0.41 -4.40091 -10.2895 -11.9942 0 0 0
8139 2614 1 0.41 -5.35372 -11.4296 -11.7115 0 0 0
2390 698 3 -0.82 -0.629111 -9.80768 -10.6859 0 0 0
2392 698 1 0.41 -1.06571 -9.71629 -11.5744 0 0 0
8273 2659 3 -0.82 -1.00037 -13.4265 -15.7329 0 1 1
7225 2309 1 0.41 -3.75434 -10.8477 -16.0887 0 1 0
7224 2309 1 0.41 -4.12763 -12.2261 -15.6748 0 1 0
10467 3390 1 0.41 -0.510831 -15.883 -14.4803 0 1 0
2559 754 1 0.41 -5.09665 -14.1161 -13.1123 0 0 1
2558 754 3 -0.82 -4.50147 -14.7714 -13.5339 0 0 1
2560 754 1 0.41 -5.0056 -15.3371 -14.1424 0 0 1
2395 699 1 0.41 -2.7758 -15.582 -10.4337 0 1 0
2393 699 3 -0.82 -3.62119 -16.0262 -10.4812 0 1 0
2394 699 1 0.41 -4.15163 -15.6241 -11.1086 0 1 0
8275 2659 1 0.41 -0.266609 -13.0134 -15.3146 0 1 1
3439 1047 1 0.41 0.832837 -13.3976 -10.6743 0 0 1
3438 1047 1 0.41 0.403647 -12.8208 -12.0739 0 0 1
3437 1047 3 -0.82 0.0834593 -13.3805 -11.3438 0 0 1
1068 257 1 0.41 1.03981 -10.2429 -14.1751 0 0 0
1069 257 1 0.41 2.38524 -11.0461 -14.2128 0 0 0
1067 257 3 -0.82 1.72457 -10.555 -14.7251 0 0 0
303 2 1 0.41 3.73385 -12.4435 -11.8606 0 0 0
302 2 3 -0.82 3.4275 -12.7861 -12.717 0 0 0
4456 1386 1 0.41 1.76989 -10.6736 -10.0798 0 0 0
304 2 1 0.41 4.18939 -13.114 -13.2263 0 0 0
2974 892 1 0.41 4.5442 -9.81323 -12.0715 0 -1 0
2972 892 3 -0.82 5.07639 -10.0659 -12.8216 0 -1 0
2973 892 1 0.41 5.9946 -9.88103 -12.6215 0 -1 0
2985 896 1 0.41 5.84327 -14.6792 -10.9643 0 0 2
5215 1639 1 0.41 2.05136 -14.9527 -13.3978 0 1 0
5214 1639 1 0.41 2.31881 -14.4627 -14.8353 0 1 0
5213 1639 3 -0.82 1.67682 -14.9334 -14.2681 0 1 0
2986 896 1 0.41 4.49101 -15.3273 -10.9244 0 0 2
2984 896 3 -0.82 5.02076 -14.7134 -11.4551 0 0 2
11941 3881 1 0.41 7.30343 -10.8194 -14.6699 0 1 1
11939 3881 3 -0.82 8.14388 -10.9291 -14.2964 0 1 1
9598 3100 1 0.41 6.38302 -15.5374 -13.4031 0 0 0
1798 500 1 0.41 11.3473 -15.7433 -12.5053 0 -1 -1
10894 3532 1 0.41 11.8977 -12.8542 -14.0786 0 1 1
10892 3532 3 -0.82 11.3207 -13.3899 -13.4942 0 1 1
10893 3532 1 0.41 10.3977 -13.1596 -13.7573 0 1 1
10470 3391 1 0.41 11.2645 -10.5384 -11.3759 0 0 2
10469 3391 3 -0.82 12.0604 -11.0062 -11.2945 0 0 2
10471 3391 1 0.41 11.8073 -11.9981 -11.3146 0 0 2
8395 2699 1 0.41 8.55649 -10.1516 -10.8664 0 0 2
8393 2699 3 -0.82 8.90652 -10.3835 -10.0211 0 0 2
8692 2798 1 0.41 10.1781 -13.4695 -9.90834 0 1 1
11940 3881 1 0.41 8.5827 -10.0621 -14.1575 0 1 1
1062 255 1 0.41 11.4624 -15.0891 -16.0154 0 0 -1
9097 2933 1 0.41 16.9702 -13.0443 -13.1389 0 0 1
4966 1556 1 0.41 14.5148 -14.261 -10.1833 0 1 0
4964 1556 3 -0.82 13.9947 -14.9197 -9.67381 0 1 0
8494 2732 1 0.41 14.9734 -12.3626 -13.964 0 1 1
8492 2732 3 -0.82 14.6081 -11.6626 -13.4772 0 1 1
8493 2732 1 0.41 14.2592 -12.0227 -12.6275 0 1 1
5184 1629 1 0.41 15.4837 -14.977 -15.3938 0 0 0
5183 1629 3 -0.82 14.7358 -14.6315 -14.976 0 0 0
5185 1629 1 0.41 14.1231 -15.3623 -14.7058 0 0 0
9095 2933 3 -0.82 17.6252 -13.083 -12.4231 0 0 1
9096 2933 1 0.41 17.6141 -12.1789 -12.0246 0 0 1
5793 1832 1 0.41 13.0756 -9.94731 -14.0325 0 0 0
5792 1832 3 -0.82 12.6435 -9.8457 -14.8807 0 0 0
11364 3689 1 0.41 15.8465 -11.0412 -10.5697 0 1 1
11365 3689 1 0.41 14.4842 -11.283 -10.0846 0 1 1
11363 3689 3 -0.82 15.2746 -11.7203 -10.4379 0 1 1
4138 1280 1 0.41 16.7748 -11.4809 -16.0977 0 0 1
11351 3685 3 -0.82 18.7361 -9.71097 -12.4891 0 1 0
10992 3565 1 0.41 21.4215 -14.2008 -9.70194 0 1 1
2221 641 1 0.41 20.5217 -13.0782 -12.6484 0 0 -1
2219 641 3 -0.82 21.1993 -12.8367 -13.3007 0 0 -1
2220 641 1 0.41 21.5047 -11.9592 -12.9813 0 0 -1
4837 1513 1 0.41 22.533 -14.0194 -16.0659 0 0 0
4835 1513 3 -0.82 22.6042 -13.0809 -16.0582 0 0 0
4836 1513 1 0.41 21.667 -12.7541 -16.0229 0 0 0
760 154 1 0.41 20.7494 -10.8217 -10.6912 0 1 -2
759 154 1 0.41 21.842 -9.96131 -9.95709 0 1 -2
758 154 3 -0.82 21.2858 -10.0538 -10.7206 0 1 -2
4572 1425 1 0.41 24.0636 -13.346 -11.7417 0 0 1
4571 1425 3 -0.82 24.105 -12.6523 -11.0551 0 0 1
2522 742 3 -0.82 19.0282 -11.3795 -15.1282 0 1 0
3249 984 1 0.41 22.5237 -15.8042 -14.363 0 1 0
10991 3565 3 -0.82 21.2021 -13.3165 -9.96478 0 1 1
6005 1903 3 -0.82 24.6588 -15.3397 -14.0307 0 0 0
8251 2651 1 0.41 23.0105 -10.5854 -14.9005 0 0 1
2523 742 1 0.41 19.9251 -11.114 -14.8277 0 1 0
2524 742 1 0.41 18.7096 -11.7771 -14.3127 0 1 0
8249 2651 3 -0.82 23.2811 -9.9536 -14.1954 0 0 1
4573 1425 1 0.41 25.0646 -12.5737 -10.9725 0 0 1
6007 1903 1 0.41 25.1176 -14.4869 -14.1751 0 0 0
9826 3176 1 0.41 28.4324 -12.6562 -13.5751 0 1 0
9825 3176 1 0.41 28.6667 -11.6491 -12.5062 0 1 0
9824 3176 3 -0.82 28.8168 -11.8223 -13.409 0 1 0
4305 1336 1 0.41 27.8659 -14.1182 -11.1514 0 0 1
4304 1336 3 -0.82 27.1137 -14.7028 -11.053 0 0 1
9101 2935 3 -0.82 27.5243 -11.3055 -10.2293 0 -1 0
9102 2935 1 0.41 26.7272 -10.8168 -10.3692 0 -1 0
9103 2935 1 0.41 28.0966 -10.7758 -9.69543 0 -1 0
4466 1390 3 -0.82 28.1389 -14.9855 -14.9568 0 0 0
4468 1390 1 0.41 28.3234 -15.6005 -14.2281 0 0 0
4467 1390 1 0.41 28.9942 -14.4754 -15.1351 0 0 0
7816 2506 1 0.41 30.2296 -15.4616 -11.7566 0 1 2
7814 2506 3 -0.82 30.4436 -14.8088 -12.4679 0 1 2
6006 1903 1 0.41 25.3952 -15.9863 -14.003 0 0 0
4306 1336 1 0.41 26.624 -14.4293 -10.2098 0 0 1
2919 874 1 0.41 25.3255 -10.0425 -13.1453 0 1 0
10564 3422 1 0.41 30.4101 -12.1454 -16.0064 0 -1 1
8942 2882 3 -0.82 33.0579 -11.6213 -14.3632 0 0 0
7815 2506 1 0.41 31.393 -14.4771 -12.3231 0 1 2
10315 3339 1 0.41 33.1995 -15.2735 -14.4916 0 0 0
10313 3339 3 -0.82 33.1564 -15.5618 -13.5765 0 0 0
5717 1807 3 -0.82 36.7214 -14.6162 -14.8594 0 0 -1
4157 1287 3 -0.82 36.0016 -14.6188 -11.4648 0 0 0
4159 1287 1 0.41 36.921 -14.7507 -11.7936 0 0 0
8944 2882 1 0.41 33.3037 -12.4667 -13.9808 0 0 0
8943 2882 1 0.41 33.2149 -10.9331 -13.6726 0 0 0
5718 1807 1 0.41 37.1377 -15.2172 -14.1907 0 0 -1
4158 1287 1 0.41 35.5068 -14.8509 -12.2597 0 0 0
1071 258 1 0.41 32.1625 -11.8541 -9.83245 0 1 0
2327 677 3 -0.82 35.4904 -9.77442 -10.3015 0 0 -1
3796 1166 1 0.41 35.1945 -16.1054 -9.92799 0 1 0
11299 3667 1 0.41 35.8043 -10.7963 -12.6815 0 1 1
11298 3667 1 0.41 35.4094 -12.2605 -12.4071 0 1 1
11297 3667 3 -0.82 35.5823 -11.6523 -13.1173 0 1 1
5719 1807 1 0.41 37.3375 -13.9034 -15.0501 0 0 -1
9818 3174 3 -0.82 40.4724 -14.5618 -15.434 0 0 0
9819 3174 1 0.41 40.2514 -13.6121 -15.4319 0 0 0
9979 3227 1 0.41 42.7525 -11.9003 -11.2927 0 -1 0
9977 3227 3 -0.82 42.012 -11.8743 -11.8744 0 -1 0
9978 3227 1 0.41 41.8814 -12.7798 -12.3236 0 -1 0
9262 2988 1 0.41 38.9133 -11.445 -14.094 0 0 1
9260 2988 3 -0.82 38.768 -11.6264 -15.037 0 0 1
9261 2988 1 0.41 38.1344 -10.9691 -15.2995 0 0 1
9820 3174 1 0.41 41.4472 -14.5311 -15.5283 0 0 0
2638 780 1 0.41 39.6197 -13.2524 -12.722 0 1 1
11305 3669 1 0.41 42.2328 -15.998 -13.8207 0 1 1
8254 2652 1 0.41 39.9651 -10.5781 -10.775 0 1 0
8253 2652 1 0.41 38.4294 -10.4843 -10.8954 0 1 0
8252 2652 3 -0.82 39.2386 -10.3871 -11.3883 0 1 0
7017 2240 1 0.41 41.2782 -10.2428 -13.5798 -1 2 -1
2636 780 3 -0.82 39.5968 -14.1516 -12.3906 0 1 1
2637 780 1 0.41 39.3876 -14.7454 -13.1422 0 1 1
11303 3669 3 -0.82 43.0466 -15.5576 -13.8543 0 1 1
4431 1378 1 0.41 40.678 -13.5691 -9.78662 0 1 -1
7753 2485 1 0.41 45.8025 -12.7459 -13.3151 -1 0 1
6294 1999 1 0.41 46.7806 -9.84884 -11.2121 0 1 1
6293 1999 3 -0.82 47.2342 -10.5266 -10.6855 0 1 1
4575 1426 1 0.41 47.5223 -11.1879 -14.6378 0 -1 -1
6295 1999 1 0.41 47.0493 -11.361 -11.2357 0 1 1
2256 653 1 0.41 49.1922 -13.4416 -12.2132 0 0 1
701 135 3 -0.82 46.0175 -13.8623 -9.85605 0 1 1
702 135 1 0.41 46.9692 -14.0859 -9.8285 0 1 1
7752 2485 1 0.41 44.6512 -13.6861 -13.1829 -1 0 1
7751 2485 3 -0.82 45.253 -13.2534 -12.6816 -1 0 1
2255 653 3 -0.82 48.352 -13.4387 -12.6893 0 0 1
2257 653 1 0.41 48.3979 -14.0021 -13.4715 0 0 1
6333 2012 1 0.41 46.787 -14.4233 -15.7137 0 0 0
4574 1426 3 -0.82 47.7338 -10.2275 -14.534 0 -1 -1
4576 1426 1 0.41 48.5938 -10.1053 -14.892 0 -1 -1
7470 2391 1 0.41 49.5323 -10.8551 -12.6499 0 2 1
540 81 1 0.41 46.6652 -15.7403 -12.4022 -1 1 0
703 135 1 0.41 45.9709 -13.1447 -10.4379 0 1 1
1468 390 1 0.41 49.4729 -11.6421 -10.0229 0 1 0
712 138 1 0.41 44.4054 -15.7884 -10.1368 0 0 -1
6332 2012 3 -0.82 46.798 -13.4788 -15.7507 0 0 0
7469 2391 3 -0.82 50.4264 -10.9657 -12.283 0 2 1
7471 2391 1 0.41 51.0066 -10.9713 -13.0328 0 2 1
3982 1228 1 0.41 53.5253 -10.1668 -10.2217 0 1 0
3981 1228 1 0.41 55.018 -10.5007 -10.2796 0 1 0
10120 3274 1 0.41 55.2444 -13.3151 -13.2623 0 0 0
10118 3274 3 -0.82 55.5466 -13.7535 -12.4288 0 0 0
10119 3274 1 0.41 54.8813 -13.4573 -11.7591 0 0 0
3980 1228 3 -0.82 54.1246 -10.8129 -10.0611 0 1 0
11429 3711 3 -0.82 52.4273 -13.586 -13.3336 -1 1 2
11430 3711 1 0.41 51.9601 -14.3936 -12.9039 -1 1 2
11431 3711 1 0.41 52.2459 -12.7801 -12.886 -1 1 2
10403 3369 3 -0.82 50.7158 -11.7607 -15.5283 0 0 0
3065 923 3 -0.82 54.0612 -10.3644 -13.2862 0 1 0
3067 923 1 0.41 54.3802 -10.1448 -14.1158 0 1 0
8799 2834 1 0.41 51.4672 -15.5872 -10.1693 0 0 1
8798 2834 3 -0.82 50.6389 -15.1999 -10.411 0 0 1
8800 2834 1 0.41 50.4832 -14.3957 -9.90445 0 0 1
10404 3369 1 0.41 51.3734 -12.398 -15.7243 0 0 0
8809 2837 1 0.41 54.019 -13.8632 -15.2479 0 1 1
8807 2837 3 -0.82 54.2393 -13.0856 -15.8346 0 1 1
8808 2837 1 0.41 53.5493 -12.4606 -15.5992 0 1 1
5874 1859 1 0.41 57.9779 -13.0903 -12.4529 0 1 0
2901 868 1 0.41 60.0194 -13.5852 -15.271 -1 2 0
2900 868 3 -0.82 60.1103 -14.5027 -15.736 -1 2 0
5873 1859 3 -0.82 58.8548 -12.9816 -12.1642 0 1 0
722 142 3 -0.82 57.3843 -10.0684 -12.657 0 0 0
724 142 1 0.41 56.6226 -10.2012 -13.2403 0 0 0
7230 2311 1 0.41 57.3437 -14.493 -10.25 0 1 0
5875 1859 1 0.41 59.1679 -12.3406 -12.7373 0 1 0
3367 1023 1 0.41 56.7812 -14.1715 -16.0902 0 1 0
1714 472 1 0.41 61.4906 -12.2001 -12.1117 -1 0 0
5556 1753 1 0.41 58.754 -11.5958 -15.3605 0 1 0
5557 1753 1 0.41 60.0894 -10.8639 -15.239 0 1 0
5555 1753 3 -0.82 59.5117 -11.5312 -14.8684 0 1 0
535 79 1 0.41 59.5185 -15.7201 -12.8397 -1 2 -1
9111 2938 1 0.41 58.1591 -10.5891 -9.96887 0 1 1
1453 385 1 0.41 61.2111 -16.0771 -11.0114 0 1 0
1712 472 3 -0.82 62.0363 -11.4465 -12.2839 -1 0 0
3096 933 1 0.41 65.1252 -12.1118 -12.3193 0 0 -1
3097 933 1 0.41 65.1858 -12.6213 -13.7469 0 0 -1
3095 933 3 -0.82 64.9158 -12.8915 -12.9043 0 0 -1
8469 2724 1 0.41 63.2696 -10.4599 -15.6357 -1 2 2
8468 2724 3 -0.82 63.2653 -11.3686 -15.3826 -1 2 2
1458 387 1 0.41 65.4077 -13.0366 -15.8803 0 0 0
1457 387 3 -0.82 66.3258 -13.4005 -15.8491 0 0 0
8513 2739 3 -0.82 67.9209 -11.2307 -12.3468 0 0 0
5601 1768 1 0.41 64.3682 -11.1849 -9.8659 0 1 0
1713 472 1 0.41 62.3071 -11.4996 -13.2346 -1 0 0
1908 537 1 0.41 63.0267 -14.0589 -12.2762 0 1 0
1907 537 3 -0.82 62.969 -14.5812 -11.4438 0 1 0
5602 1768 1 0.41 63.1242 -10.4884 -10.4286 0 1 0
5600 1768 3 -0.82 64.0778 -10.3279 -10.1824 0 1 0
8610 2771 1 0.41 66.1737 -15.9719 -9.69276 -1 1 1
1909 537 1 0.41 63.7069 -14.3462 -10.9477 0 1 0
10475 3393 3 -0.82 67.2987 -10.3492 -15.688 0 0 1
10840 3514 1 0.41 71.1636 -14.673 -13.184 -1 2 1
10838 3514 3 -0.82 70.868 -15.4973 -12.8244 -1 2 1
8514 2739 1 0.41 68.4029 -12.062 -12.2354 0 0 0
1017 240 1 0.41 74.1377 -12.5015 -14.873 0 1 0
8515 2739 1 0.41 68.2296 -10.7878 -13.1785 0 0 0
11608 3770 1 0.41 68.6948 -13.5531 -14.271 0 1 1
11606 3770 3 -0.82 69.3499 -12.8655 -14.2984 0 1 1
11607 3770 1 0.41 69.8896 -13.0202 -15.0222 0 1 1
2023 575 1 0.41 69.7631 -10.4375 -10.9125 -1 1 1
2022 575 1 0.41 71.1623 -9.85123 -10.4299 -1 1 1
2021 575 3 -0.82 70.5754 -9.91264 -11.1808 -1 1 1
10839 3514 1 0.41 70.7184 -15.2259 -11.9177 -1 2 1
9093 2932 1 0.41 73.0189 -12.0475 -11.6769 0 -1 0
9092 2932 3 -0.82 72.7923 -11.9658 -12.5843 0 -1 0
3777 1160 1 0.41 68.6427 -13.9786 -10.5607 -1 1 0
3776 1160 3 -0.82 69.5315 -13.6027 -10.5117 -1 1 0
3672 1125 1 0.41 74.3644 -13.9149 -10.0924 0 0 0
3671 1125 3 -0.82 73.411 -13.8602 -10.1357 0 0 0
3673 1125 1 0.41 72.9482 -14.6048 -9.88346 0 0 0
9094 2932 1 0.41 72.0673 -11.2833 -12.5893 0 -1 0
10477 3393 1 0.41 68.2395 -10.367 -15.6569 0 0 1
1018 240 1 0.41 74.6484 -11.602 -16.0531 0 1 0
1016 240 3 -0.82 74.8947 -12.3137 -15.4212 0 1 0
11171 3625 3 -0.82 75.7708 -10.5692 -12.3797 0 0 0
11173 3625 1 0.41 75.9739 -11.1921 -13.0572 0 0 0
3642 1115 1 0.41 78.4788 -12.8497 -14.2065 0 1 0
9476 3060 3 -0.82 78.9051 -11.2897 -11.9408 -1 0 2
9478 3060 1 0.41 79.7628 -11.3084 -11.6927 -1 0 2
9477 3060 1 0.41 78.802 -10.5804 -12.5998 -1 0 2
11172 3625 1 0.41 74.8312 -10.254 -12.5623 0 0 0
11566 3756 1 0.41 76.1293 -13.6273 -12.2149 -1 0 2
11564 3756 3 -0.82 75.86 -14.2977 -12.8397 -1 0 2
11565 3756 1 0.41 75.075 -14.7796 -12.5973 -1 0 2
3641 1115 3 -0.82 78.053 -13.1343 -15.0323 0 1 0
3643 1115 1 0.41 77.317 -13.7215 -14.8268 0 1 0
4404 1369 1 0.41 75.8473 -15.638 -15.5676 0 0 1
4405 1369 1 0.41 76.8453 -16.0577 -14.3966 0 0 1
445 49 1 0.41 80.343 -14.3437 -10.8186 0 1 0
443 49 3 -0.82 79.6367 -14.4426 -11.5121 0 1 0
444 49 1 0.41 79.1393 -13.6642 -11.3853 0 1 0
5533 1745 1 0.41 80.2608 -10.5261 -15.634 -1 1 1
7194 2299 1 0.41 -74.8574 -9.38731 -10.4734 1 0 1
2950 884 1 0.41 -77.7755 -7.58073 -11.0279 1 0 2
2949 884 1 0.41 -78.3406 -9.10347 -10.9165 1 0 2
2948 884 3 -0.82 -78.4926 -8.16198 -10.7205 1 0 2
3478 1060 1 0.41 -79.0586 -9.03591 -13.7818 0 0 0
3476 1060 3 -0.82 -78.2032 -9.11502 -14.2697 0 0 0
10793 3499 3 -0.82 -75.949 -6.8371 -15.6991 0 1 1
3477 1060 1 0.41 -77.6061 -8.35508 -14.0942 0 0 0
9259 2987 1 0.41 -77.5844 -5.17932 -13.3043 1 0 2
9258 2987 1 0.41 -76.5453 -6.24828 -12.8459 1 0 2
9257 2987 3 -0.82 -77.4584 -5.99549 -12.7606 1 0 2
2895 866 1 0.41 -78.2121 -4.21083 -9.93525 0 1 1
6570 2091 1 0.41 -80.5822 -5.70329 -12.7258 0 1 0
6569 2091 3 -0.82 -80.5701 -5.65719 -11.7719 0 1 0
10794 3499 1 0.41 -75.2761 -6.2188 -15.6211 0 1 1
1743 482 1 0.41 -74.5054 -8.74347 -13.3586 1 1 0
6571 2091 1 0.41 -79.8227 -6.21763 -11.4146 0 1 0
4561 1421 1 0.41 -74.9321 -5.41496 -9.7211 1 -1 1
1742 482 3 -0.82 -74.4024 -7.82855 -13.0531 1 1 0
8667 2790 1 0.41 -68.2521 -9.341 -10.1323 1 1 2
1253 319 3 -0.82 -72.2646 -8.30277 -10.1131 0 0 -1
1254 319 1 0.41 -71.3536 -8.07124 -10.1613 0 0 -1
8666 2790 3 -0.82 -68.5645 -8.60447 -10.7036 1 1 2
8480 2728 3 -0.82 -70.5419 -5.9291 -11.2046 0 1 1
8481 2728 1 0.41 -71.3091 -6.01868 -11.7744 0 1 1
8482 2728 1 0.41 -69.7175 -5.87665 -11.7415 0 1 1
8521 2741 1 0.41 -69.3991 -8.55426 -13.465 1 0 2
8519 2741 3 -0.82 -69.2956 -9.18772 -14.2319 1 0 2
8520 2741 1 0.41 -70.233 -9.33923 -14.4455 1 0 2
9821 3175 3 -0.82 -72.5074 -3.66149 -9.92926 1 1 0
9822 3175 1 0.41 -71.6439 -3.37359 -10.2433 1 1 0
6888 2197 1 0.41 -71.9412 -3.30758 -14.3501 1 0 1
6889 2197 1 0.41 -73.2716 -3.61625 -13.9123 1 0 1
1744 482 1 0.41 -74.0064 -7.94821 -12.1882 1 1 0
6284 1996 3 -0.82 -71.3597 -6.48572 -14.4148 0 2 1
6285 1996 1 0.41 -72.0991 -7.08062 -14.1753 0 2 1
6286 1996 1 0.41 -71.165 -6.62722 -15.3243 0 2 1
9523 3075 1 0.41 -69.2234 -3.73547 -13.6513 1 -1 1
9521 3075 3 -0.82 -68.4777 -4.10342 -13.1206 1 -1 1
8668 2790 1 0.41 -68.0363 -7.80479 -10.4859 1 1 2
2446 716 1 0.41 -63.824 -8.19451 -10.7782 0 2 -1
2444 716 3 -0.82 -63.2616 -8.65628 -11.3925 0 2 -1
2202 635 1 0.41 -66.5804 -9.23143 -14.8619 1 1 0
3750 1151 1 0.41 -63.6635 -4.97763 -11.1511 0 0 -1
3751 1151 1 0.41 -62.5041 -4.24979 -11.792 0 0 -1
10591 3431 1 0.41 -66.4455 -5.13486 -15.8546 1 0 0
692 132 3 -0.82 -66.0375 -7.20881 -12.0108 0 -1 -1
693 132 1 0.41 -65.842 -6.6307 -12.759 0 -1 -1
694 132 1 0.41 -66.3142 -8.05986 -12.4432 0 -1 -1
1729 477 1 0.41 -66.3387 -4.90852 -10.5588 0 0 0
8523 2742 1 0.41 -63.6667 -8.31834 -14.9852 1 1 0
8524 2742 1 0.41 -64.0058 -6.99545 -14.4954 1 1 0
8522 2742 3 -0.82 -64.3532 -7.69983 -15.0305 1 1 0
2445 716 1 0.41 -62.4602 -8.1804 -11.5455 0 2 -1
10228 3310 1 0.41 -64.7809 -3.49053 -14.306 0 2 2
3749 1151 3 -0.82 -63.4767 -4.26533 -11.7225 0 0 -1
9522 3075 1 0.41 -67.6941 -3.90797 -13.6568 1 -1 1
6704 2136 3 -0.82 -61.3997 -6.16109 -10.078 0 1 1
6706 2136 1 0.41 -60.8099 -6.0711 -10.8537 0 1 1
5217 1640 1 0.41 -58.7909 -7.51547 -10.696 0 1 -1
5216 1640 3 -0.82 -58.6168 -7.17983 -9.81531 0 1 -1
448 50 1 0.41 -55.9576 -5.80413 -13.967 1 0 0
8531 2745 3 -0.82 -59.8026 -4.44217 -14.4299 1 1 0
8533 2745 1 0.41 -60.1725 -3.5751 -14.6199 1 1 0
6687 2130 1 0.41 -58.4934 -3.28323 -12.3605 0 0 0
9506 3070 3 -0.82 -59.8858 -7.68636 -12.9548 0 1 1
9507 3070 1 0.41 -59.0953 -7.70718 -13.5149 0 1 1
8031 2578 1 0.41 -55.9635 -3.40117 -10.8323 0 0 1
8532 2745 1 0.41 -59.4901 -4.84883 -15.2248 1 1 0
6688 2130 1 0.41 -57.2997 -3.37134 -13.2153 0 0 0
10684 3462 1 0.41 -56.8725 -7.90487 -15.4323 0 2 1
10682 3462 3 -0.82 -57.7445 -8.26493 -15.5178 0 2 1
10683 3462 1 0.41 -57.7136 -9.21355 -15.4639 0 2 1
9508 3070 1 0.41 -60.716 -7.96464 -13.4367 0 1 1
2581 761 1 0.41 -60.391 -9.32342 -16.0827 0 1 -1
2579 761 3 -0.82 -61.3043 -9.25457 -15.7127 0 1 -1
11913 3872 1 0.41 -54.6802 -8.31946 -14.5645 1 1 1
447 50 1 0.41 -54.8889 -4.68802 -14.1229 1 0 0
446 50 3 -0.82 -55.4009 -5.18562 -13.5003 1 0 0
11914 3872 1 0.41 -54.8054 -8.69772 -13.0863 1 1 1
11912 3872 3 -0.82 -55.2927 -8.79304 -13.9292 1 1 1
8030 2578 3 -0.82 -55.7674 -4.04539 -10.1117 0 0 1
8032 2578 1 0.41 -55.35 -4.85113 -10.4416 0 0 1
9643 3115 1 0.41 -51.9152 -6.93451 -15.1795 0 1 1
9641 3115 3 -0.82 -52.8444 -6.96299 -15.2939 0 1 1
10825 3509 1 0.41 -51.2571 -4.14922 -12.785 0 0 1
10823 3509 3 -0.82 -52.1188 -4.01055 -13.2342 0 0 1
7879 2527 1 0.41 -53.4757 -6.45697 -12.6894 0 0 0
7877 2527 3 -0.82 -53.3355 -6.72982 -11.768 0 0 0
7878 2527 1 0.41 -53.0937 -7.64834 -11.6935 0 0 0
10824 3509 1 0.41 -52.5609 -3.27765 -12.796 0 0 1
11507 3737 3 -0.82 -49.6637 -6.89795 -15.6185 0 -1 1
8628 2777 1 0.41 -53.3661 -4.01838 -15.8815 0 1 0
1477 393 1 0.41 -46.0942 -9.31724 -12.5132 1 1 -1
2107 603 1 0.41 -46.3685 -9.32467 -9.9566 0 0 -1
6695 2133 3 -0.82 -48.7135 -8.53783 -11.5173 0 0 1
8618 2774 3 -0.82 -48.8419 -5.03194 -12.9046 0 1 1
8620 2774 1 0.41 -48.9901 -5.3648 -13.8299 0 1 1
8619 2774 1 0.41 -48.2661 -5.71453 -12.4053 0 1 1
11307 3670 1 0.41 -45.4786 -7.61548 -14.9038 1 0 2
3346 1016 1 0.41 -45.3213 -4.73699 -15.5623 0 0 0
3344 1016 3 -0.82 -45.565 -4.67345 -14.613 0 0 0
6696 2133 1 0.41 -48.4353 -7.83813 -10.921 0 0 1
3345 1016 1 0.41 -46.2547 -3.98925 -14.5228 0 0 0
11308 3670 1 0.41 -46.6565 -7.04117 -15.7546 1 0 2
11306 3670 3 -0.82 -46.4667 -7.60463 -15.0004 1 0 2
8150 2618 3 -0.82 -44.084 -4.11669 -9.70874 0 -1 1
6697 2133 1 0.41 -49.3695 -8.05557 -12.0626 0 0 1
6388 2030 1 0.41 -45.7259 -6.74514 -12.2609 0 0 0
6386 2030 3 -0.82 -45.8368 -7.2356 -11.4744 0 0 0
6387 2030 1 0.41 -45.0517 -7.21558 -10.9119 0 0 0
11508 3737 1 0.41 -48.9267 -7.4644 -15.2871 0 -1 1
8872 2858 1 0.41 -43.5357 -5.71542 -15.5405 0 0 1