ITEM: TIMESTEP
0
ITEM: NUMBER OF ATOMS
12061
ITEM: BOX BOUNDS pp pp pp
-85.4844 85.4844
-17.0969 17.0969
-17.0969 17.0969
ITEM: ATOMS id mol type x y z ix iy iz 
1 1 1 -72.3068 -1.13861 -1.57132 0 0 0 
2 1 1 -71.3718 -1.85085 -0.0677303 0 0 0 
3 1 2 -71.3323 -1.15873 -0.961252 0 0 0 
4 1 1 -70.6794 0.849001 -1.29964 0 0 0 
5 1 1 -71.6458 0.687646 -0.0178949 0 0 0 
6 1 2 -70.9658 0.114748 -0.653444 0 0 0 
7 1 1 -70.0564 0.608838 0.864861 0 0 0 
8 1 1 -69.6757 -0.958063 0.640304 0 0 0 
9 1 2 -69.6325 -0.117116 0.10298 0 0 0 
10 1 1 -68.3816 1.40075 -0.346204 0 0 0 
11 1 1 -68.3111 0.00203338 -1.21825 0 0 0 
12 1 2 -68.3589 0.393702 -0.29652 0 0 0 
13 1 1 -67.4997 1.44277 1.06949 0 0 0 
14 1 1 -67.2231 -0.227271 1.66055 0 0 0 
15 1 2 -67.2007 0.395497 0.774885 0 0 0 
16 1 1 -65.6909 -0.851063 0.447126 0 0 0 
17 1 1 -65.7659 -0.163115 -1.10633 0 0 0 
18 1 2 -65.7076 0.25941 -0.00635377 0 0 0 
19 1 1 -63.7525 1.58344 0.702719 0 0 0 
20 1 1 -63.7555 -0.0233803 1.21718 0 0 0 
21 1 2 -63.9974 0.560977 0.465637 0 0 0 
22 1 1 -62.8162 1.39443 -1.19061 0 0 0 
23 1 1 -63.6274 -0.407652 -1.65461 0 0 0 
24 1 2 -63.2119 0.327016 -0.841076 0 0 0 
25 1 1 -61.1309 0.578772 0.0417751 0 0 0 
26 1 1 -61.4477 -0.807303 0.268235 0 0 0 
27 1 2 -61.8025 0.00751237 -0.338554 0 0 0 
28 1 1 -61.6302 -1.54072 -1.87545 0 0 0 
29 1 1 -60.9656 0.0609073 -2.51814 0 0 0 
30 1 2 -61.1527 -0.591145 -1.58923 0 0 0 
31 1 1 -59.8313 -2.36254 -0.99377 0 0 0 
32 1 1 -59.5249 -1.4961 -2.34258 0 0 0 
33 1 2 -59.8487 -1.31874 -1.30462 0 0 0 
34 1 1 -59.2815 -0.0630196 0.491602 0 0 0 
35 1 1 -58.0803 -1.18178 0.258157 0 0 0 
36 1 2 -58.8598 -0.57633 -0.29254 0 0 0 
37 1 1 -58.4811 0.805566 -1.8484 0 0 0 
38 1 1 -58.5938 1.57218 -0.437275 0 0 0 
39 1 2 -58.1349 0.674049 -0.890013 0 0 0 
40 1 1 -56.5133 -0.681545 -1.6197 0 0 0 
41 1 1 -56.4605 0.952711 -1.91383 0 0 0 
42 1 2 -56.6191 0.388857 -0.916387 0 0 0 
43 1 1 -55.7762 1.34061 1.11241 0 0 0 
44 1 1 -56.1785 -0.221363 1.36026 0 0 0 
45 1 2 -55.8187 0.413067 0.537296 0 0 0 
46 1 1 -54.3595 -0.972929 1.16657 0 0 0 
47 1 1 -54.486 -0.973246 -0.475422 0 0 0 
48 1 2 -54.5976 -0.269523 0.346628 0 0 0 
49 1 1 -54.0711 1.02523 -1.2743 0 0 0 
50 1 1 -53.074 1.37932 -0.026152 0 0 0 
51 1 2 -53.4836 0.518242 -0.397822 0 0 0 
52 1 1 -52.1409 -1.21248 0.00499193 0 0 0 
53 1 1 -52.3472 -0.46892 -1.44839 0 0 0 
54 1 2 -52.1259 -0.253901 -0.422869 0 0 0 
55 1 1 -50.6944 0.89014 -1.10424 0 0 0 
56 1 1 -50.819 1.00543 0.688082 0 0 0 
57 1 2 -50.7174 0.198891 -0.137793 0 0 0 
58 1 1 -49.5703 1.62384 -0.266151 0 0 0 
59 1 1 -49.1093 0.794641 1.191 0 0 0 
60 1 2 -49.3391 0.601512 0.062382 0 0 0 
61 1 1 -47.9662 1.77078 -0.887707 0 0 0 
62 1 1 -47.8082 1.32494 0.50981 0 0 0 
63 1 2 -47.9795 0.81695 -0.462925 0 0 0 
64 1 1 -46.4986 -0.513428 -1.4148 0 0 0 
65 1 1 -47.2058 -1.13911 0.112849 0 0 0 
66 1 2 -46.9369 -0.390249 -0.541186 0 0 0 
67 1 1 -45.3476 0.82546 1.02205 0 0 0 
68 1 1 -45.3496 -1.04995 1.01593 0 0 0 
69 1 2 -45.6191 -0.165235 0.276676 0 0 0 
70 1 1 -44.4337 -1.57845 -0.508756 0 0 0 
71 1 1 -44.6225 -0.129058 -1.72972 0 0 0 
72 1 2 -44.4724 -0.533854 -0.627176 0 0 0 
73 1 1 -43.6309 1.22434 -0.820275 0 0 0 
74 1 1 -43.6535 0.657078 0.768244 0 0 0 
75 1 2 -43.4417 0.309865 -0.270145 0 0 0 
76 1 1 -41.7874 -0.87774 -1.05379 0 0 0 
77 1 1 -41.9015 0.794767 -1.44149 0 0 0 
78 1 2 -41.9763 0.12306 -0.641165 0 0 0 
79 1 1 -40.5063 -1.10612 -0.107821 0 0 0 
80 1 1 -40.0524 0.196443 -1.48123 0 0 0 
81 1 2 -40.3118 -0.0487402 -0.389231 0 0 0 
82 1 1 -38.4452 0.471475 1.07914 0 0 0 
83 1 1 -39.0661 -1.12695 0.55336 0 0 0 
84 1 2 -38.8385 -0.0237949 0.173766 0 0 0 
85 1 1 -37.4513 -1.25518 -0.175885 0 0 0 
86 1 1 -37.491 -0.90566 -1.71158 0 0 0 
87 1 2 -37.4815 -0.278801 -0.785408 0 0 0 
88 1 1 -35.8943 1.22394 -0.125625 0 0 0 
89 1 1 -35.9618 -0.507535 0.584876 0 0 0 
90 1 2 -36.0232 0.145129 -0.30236 0 0 0 
91 1 1 -34.1193 -0.321748 0.665316 0 0 0 
92 1 1 -34.4804 -1.2848 -0.671124 0 0 0 
93 1 2 -34.4732 -0.176651 -0.415357 0 0 0 
94 1 1 -32.9952 -0.202816 -2.17391 0 0 0 
95 1 1 -33.2635 1.49624 -1.77213 0 0 0 
96 1 2 -33.1008 0.479571 -1.27261 0 0 0 
97 1 1 -31.5239 0.331029 0.568754 0 0 0 
98 1 1 -31.867 -0.961745 -0.430616 0 0 0 
99 1 2 -31.6428 0.150889 -0.47431 0 0 0 
100 1 1 -30.1717 -0.934098 -1.42771 0 0 0 
101 1 1 -29.8095 0.750705 -2.03751 0 0 0 
102 1 2 -29.9709 0.126957 -1.19096 0 0 0 
103 1 1 -28.6751 0.92121 0.692288 0 0 0 
104 1 1 -28.931 -0.904767 0.316339 0 0 0 
105 1 2 -28.6456 0.0433519 -0.0445899 0 0 0 
106 1 1 -26.5806 0.787128 0.855615 0 0 0 
107 1 1 -26.7479 -0.933908 1.10852 0 0 0 
108 1 2 -26.7937 -0.108344 0.255385 0 0 0 
109 1 1 -24.8713 0.821991 0.879751 0 0 0 
110 1 1 -24.4205 -1.01659 0.463614 0 0 0 
111 1 2 -24.9186 -0.0290085 0.164045 0 0 0 
112 1 1 -23.5963 -0.251545 -1.78931 0 0 0 
113 1 1 -23.8416 1.30879 -1.32961 0 0 0 
114 1 2 -23.6869 0.287936 -0.867485 0 0 0 
115 1 1 -21.8067 1.43626 -1.20071 0 0 0 
116 1 1 -21.9627 0.957923 0.457187 0 0 0 
117 1 2 -22.0323 0.490195 -0.619434 0 0 0 
118 1 1 -20.5817 0.155524 0.705282 0 0 0 
119 1 1 -20.5548 -1.30578 -0.0434235 0 0 0 
120 1 2 -20.6701 -0.282519 -0.281138 0 0 0 
121 1 1 -19.1873 -0.724221 -1.74291 0 0 0 
122 1 1 -19.2277 1.05833 -1.66238 0 0 0 
123 1 2 -19.2328 0.157197 -1.04991 0 0 0 
124 1 1 -17.2509 1.47507 -1.03811 0 0 0 
125 1 1 -17.4304 0.596616 0.59151 0 0 0 
126 1 2 -17.6154 0.467256 -0.53078 0 0 0 
127 1 1 -16.1174 -0.473753 -2.02773 0 0 0 
128 1 1 -16.1819 -1.61901 -0.532335 0 0 0 
129 1 2 -16.2553 -0.548282 -0.947148 0 0 0 
130 1 1 -14.8506 1.44179 -0.806974 0 0 0 
131 1 1 -14.9107 0.471396 0.728962 0 0 0 
132 1 2 -14.8066 0.381663 -0.422556 0 0 0 
133 1 1 -13.3735 -0.267988 0.706105 0 0 0 
134 1 1 -13.53 -1.33784 -0.765669 0 0 0 
135 1 2 -13.2852 -0.325324 -0.331663 0 0 0 
136 1 1 -11.6101 -1.41933 0.560338 0 0 0 
137 1 1 -11.4668 -1.61395 -0.955026 0 0 0 
138 1 2 -11.5191 -0.614004 -0.402589 0 0 0 
139 1 1 -9.17137 -1.00107 0.47798 0 0 0 
140 1 1 -9.65388 -1.68721 -1.16329 0 0 0 
141 1 2 -9.71237 -0.737516 -0.504656 0 0 0 
142 1 1 -7.81003 0.864569 -1.41856 0 0 0 
143 1 1 -7.70132 0.411418 0.352696 0 0 0 
144 1 2 -8.08306 0.125653 -0.619749 0 0 0 
145 1 1 -6.31156 -0.498721 -2.05771 0 0 0 
146 1 1 -6.30654 -1.73715 -1.00195 0 0 0 
147 1 2 -6.59428 -0.619572 -1.07329 0 0 0 
148 1 1 -5.10895 1.0357 -0.0576141 0 0 0 
149 1 1 -4.91888 -0.580003 0.502882 0 0 0 
150 1 2 -4.90217 -0.118194 -0.442957 0 0 0 
151 1 1 -3.17225 0.588141 -1.76063 0 0 0 
152 1 1 -3.54378 1.58986 -0.439514 0 0 0 
153 1 2 -3.31331 0.544367 -0.643114 0 0 0 
154 1 1 -1.79305 -0.432475 -1.53569 0 0 0 
155 1 1 -1.34482 0.983794 -0.970156 0 0 0 
156 1 2 -1.72089 0.0642145 -0.600385 0 0 0 
157 1 1 -0.505773 0.592438 1.17958 0 0 0 
158 1 1 -0.172484 -1.29637 0.345371 0 0 0 
159 1 2 -0.29613 -0.173116 0.189234 0 0 0 
160 1 1 1.60531 0.890181 0.593833 0 0 0 
161 1 1 1.49797 0.872045 -1.30057 0 0 0 
162 1 2 1.4434 0.229824 -0.377139 0 0 0 
163 1 1 2.92623 -1.06637 0.633271 0 0 0 
164 1 1 3.18299 -1.34358 -1.05749 0 0 0 
165 1 2 3.0157 -0.592031 -0.305337 0 0 0 
166 1 1 4.90505 0.728151 -1.16407 0 0 0 
167 1 1 4.36166 0.993628 0.385127 0 0 0 
168 1 2 4.51564 0.24276 -0.341929 0 0 0 
169 1 1 6.44487 -1.40871 -0.111807 0 0 0 
170 1 1 5.79532 -0.536703 -1.51595 0 0 0 
171 1 2 6.05474 -0.513474 -0.345548 0 0 0 
172 1 1 7.75343 1.03025 0.741052 0 0 0 
173 1 1 7.78949 1.13272 -1.02034 0 0 0 
174 1 2 7.63013 0.241768 -0.225344 0 0 0 
175 1 1 8.92952 -1.57885 0.360261 0 0 0 
176 1 1 8.74006 -0.951429 -1.28721 0 0 0 
177 1 2 8.97043 -0.616973 -0.25947 0 0 0 
178 1 1 10.7125 -0.120271 -1.67799 0 0 0 
179 1 1 10.4837 1.02841 -0.521712 0 0 0 
180 1 2 10.5671 -0.0779179 -0.567124 0 0 0 
181 1 1 12.4189 -0.759894 -1.2824 0 0 0 
182 1 1 12.1196 0.973467 -1.28517 0 0 0 
183 1 2 12.2659 0.144014 -0.654884 0 0 0 
184 1 1 14.157 0.21465 -1.76039 0 0 0 
185 1 1 14.0006 1.39952 -0.499992 0 0 0 
186 1 2 13.9327 0.315767 -0.697949 0 0 0 
187 1 1 15.4486 -0.090304 1.27294 0 0 0 
188 1 1 15.2264 -1.40995 0.127677 0 0 0 
189 1 2 15.3622 -0.313374 0.185224 0 0 0 
190 1 1 17.3407 -1.43439 -0.325125 0 0 0 
191 1 1 16.7013 -0.56545 -1.69709 0 0 0 
192 1 2 16.9303 -0.415753 -0.621065 0 0 0 
193 1 1 18.9084 0.128885 -1.61924 0 0 0 
194 1 1 18.4878 1.36794 -0.891418 0 0 0 
195 1 2 18.519 0.299925 -0.661901 0 0 0 
196 1 1 20.2387 0.774276 1.12172 0 0 0 
197 1 1 19.6888 -0.880386 1.11112 0 0 0 
198 1 2 19.8521 -0.013829 0.41622 0 0 0 
199 1 1 21.1696 -1.22156 -1.22127 0 0 0 
200 1 1 21.0367 0.403556 -1.60781 0 0 0 
201 1 2 21.2058 -0.194576 -0.689796 0 0 0 
202 1 1 22.6293 1.04665 0.346722 0 0 0 
203 1 1 22.5822 -0.549267 0.978187 0 0 0 
204 1 2 22.6897 0.0299351 0.0535273 0 0 0 
205 1 1 24.3397 -1.27873 0.210439 0 0 0 
206 1 1 24.3861 -0.78189 -1.28343 0 0 0 
207 1 2 24.2588 -0.389117 -0.28471 0 0 0 
208 1 1 25.897 0.807978 -1.24368 0 0 0 
209 1 1 25.7603 1.06026 0.56657 0 0 0 
210 1 2 25.8673 0.158666 -0.0869597 0 0 0 
211 1 1 27.6681 1.12136 -0.66545 0 0 0 
212 1 1 27.6272 1.05226 0.91614 0 0 0 
213 1 2 27.5746 0.343048 -0.0290323 0 0 0 
214 1 1 29.2845 1.34902 -0.709822 0 0 0 
215 1 1 29.4327 1.03328 0.987651 0 0 0 
216 1 2 29.2742 0.405226 0.015058 0 0 0 
217 1 1 30.9012 1.40796 -0.0336973 0 0 0 
218 1 1 31.1693 0.0838893 0.933088 0 0 0 
219 1 2 30.9279 0.274848 -0.0497173 0 0 0 
220 1 1 32.2088 -1.32361 -0.082839 0 0 0 
221 1 1 32.3987 -0.723265 -1.67642 0 0 0 
222 1 2 32.2531 -0.393723 -0.684562 0 0 0 
223 1 1 34.0075 0.612404 -1.491 0 0 0 
224 1 1 33.9147 0.99883 0.385593 0 0 0 
225 1 2 33.6785 0.274817 -0.428938 0 0 0 
226 1 1 34.8038 -0.97134 0.791553 0 0 0 
227 1 1 35.0051 -1.59818 -0.793387 0 0 0 
228 1 2 34.9035 -0.637828 -0.278036 0 0 0 
229 1 1 36.723 -0.978687 0.652824 0 0 0 
230 1 1 36.7007 -1.06018 -1.09101 0 0 0 
231 1 2 36.4501 -0.380696 -0.200429 0 0 0 
232 1 1 37.9086 1.1205 -1.0962 0 0 0 
233 1 1 37.95 0.935635 0.802646 0 0 0 
234 1 2 37.8249 0.443256 -0.201029 0 0 0 
235 1 1 39.1082 -1.31294 0.161782 0 0 0 
236 1 1 39.1913 -1.00962 -1.57424 0 0 0 
237 1 2 39.1782 -0.51263 -0.593322 0 0 0 
238 1 1 40.5018 1.15637 -0.755653 0 0 0 
239 1 1 40.2323 0.695103 0.798248 0 0 0 
240 1 2 40.4907 0.234872 -0.170773 0 0 0 
241 1 1 42.52 0.86892 0.0916913 0 0 0 
242 1 1 42.2465 -0.732325 0.93332 0 0 0 
243 1 2 42.0835 -0.1548 -0.0668892 0 0 0 
244 1 1 43.1752 -2.06186 -1.01871 0 0 0 
245 1 1 43.4112 -0.45427 -1.81734 0 0 0 
246 1 2 43.1597 -0.94187 -0.878789 0 0 0 
247 1 1 44.3127 0.408516 0.392729 0 0 0 
248 1 1 44.2721 -1.14678 0.991694 0 0 0 
249 1 2 44.3502 -0.654898 0.0193521 0 0 0 
250 1 1 46.3691 -1.69687 -0.372746 0 0 0 
251 1 1 45.5878 -0.750684 -1.61464 0 0 0 
252 1 2 45.8235 -0.748989 -0.506681 0 0 0 
253 1 1 46.2863 0.782975 -1.643 0 0 0 
254 1 1 45.5593 1.47484 -0.562338 0 0 0 
255 1 2 46.2747 0.622865 -0.524251 0 0 0 
256 1 1 47.9108 1.80505 -0.806613 0 0 0 
257 1 1 47.9251 1.04394 0.86146 0 0 0 
258 1 2 47.7149 0.902898 -0.231864 0 0 0 
259 1 1 48.7415 0.0120713 -2.09445 0 0 0 
260 1 1 49.5856 1.16793 -1.09988 0 0 0 
261 1 2 49.018 0.226177 -1.01075 0 0 0 
262 1 1 48.9931 -1.57565 0.418966 0 0 0 
263 1 1 50.0335 -1.71977 -0.927066 0 0 0 
264 1 2 49.7813 -1.01248 -0.21027 0 0 0 
265 1 1 51.2504 -1.06297 1.51274 0 0 0 
266 1 1 51.5993 -1.71502 -0.118254 0 0 0 
267 1 2 51.1512 -0.858946 0.418982 0 0 0 
268 1 1 51.5253 0.543933 -1.32238 0 0 0 
269 1 1 51.5978 1.42229 0.159028 0 0 0 
270 1 2 51.9127 0.429274 -0.228465 0 0 0 
271 1 1 53.3969 -0.838606 -1.1002 0 0 0 
272 1 1 53.9479 0.542299 -1.17215 0 0 0 
273 1 2 53.3947 -0.0311032 -0.431538 0 0 0 
274 1 1 54.4613 -0.844618 1.56436 0 0 0 
275 1 1 54.8968 -1.45643 -0.197561 0 0 0 
276 1 2 54.4455 -0.63891 0.522606 0 0 0 
277 1 1 55.4359 1.30136 0.606836 0 0 0 
278 1 1 55.5106 0.804817 -0.761326 0 0 0 
279 1 2 55.5275 0.387285 0.205321 0 0 0 
280 1 1 56.5041 -1.50053 0.77509 0 0 0 
281 1 1 56.6402 -1.12073 -0.877674 0 0 0 
282 1 2 56.7513 -0.595382 0.0290436 0 0 0 
283 1 1 57.6188 1.17568 0.76902 0 0 0 
284 1 1 58.6949 -0.263419 1.21731 0 0 0 
285 1 2 57.9288 0.288909 0.340002 0 0 0 
286 1 1 58.2348 1.1891 -1.72868 0 0 0 
287 1 1 59.342 1.74679 -0.200032 0 0 0 
288 1 2 58.8411 0.957229 -0.696656 0 0 0 
289 1 1 60.231 -0.0887217 0.146829 0 0 0 
290 1 1 59.6464 -1.27736 -1.0214 0 0 0 
291 1 2 60.0716 -0.285669 -0.88446 0 0 0 
292 1 1 61.3467 0.350142 -2.7738 0 0 0 
293 1 1 61.5498 1.23377 -1.21632 0 0 0 
294 1 2 61.4625 0.157143 -1.75676 0 0 0 
295 1 1 63.7221 0.0453968 -1.2022 0 0 0 
296 1 1 62.9381 -1.77593 -1.54 0 0 0 
297 1 2 62.7629 -0.489754 -1.18005 0 0 0 
298 1 1 63.5155 0.0756091 0.690311 0 0 0 
299 1 1 61.7048 0.484941 0.454302 0 0 0 
300 1 2 62.4346 -0.297441 0.244892 0 0 0 
301 1 1 62.1611 -1.27993 0.666886 0 0 0 
302 2 3 33.7258 -13.9504 -14.2551 0 0 0 
303 2 1 34.6643 -13.7583 -14.1232 0 0 0 
304 2 1 33.6831 -14.7615 -14.7675 0 0 0 
305 3 3 30.3052 -13.9473 -14.2647 0 0 0 
306 3 1 31.243 -13.7771 -14.1016 0 0 0 
307 3 1 30.2524 -14.7968 -14.7087 0 0 0 
308 4 3 26.891 -13.9554 -14.2632 0 0 0 
309 4 1 27.8446 -13.8547 -14.1468 0 0 0 
310 4 1 26.7548 -14.759 -14.7708 0 0 0 
311 5 3 23.4546 -13.9561 -14.264 0 0 0 
312 5 1 24.3866 -13.707 -14.203 0 0 0 
313 5 1 23.4173 -14.8051 -14.7102 0 0 0 
314 6 3 20.0303 -13.9485 -14.2715 0 0 0 
315 6 1 20.9466 -13.6574 -14.1629 0 0 0 
316 6 1 20.0591 -14.877 -14.5114 0 0 0 
317 7 3 16.6314 -13.9613 -14.2771 0 0 0 
318 7 1 17.5594 -13.7611 -14.0921 0 0 0 
319 7 1 16.6173 -14.7942 -14.7542 0 0 0 
320 8 3 13.2236 -13.963 -14.2827 0 0 0 
321 8 1 14.1676 -13.8615 -14.1025 0 0 0 
322 8 1 13.1141 -14.8171 -14.7071 0 0 0 
323 9 3 9.7957 -13.9582 -14.2771 0 0 0 
324 9 1 10.7517 -13.9083 -14.1508 0 0 0 
325 9 1 9.60234 -14.8503 -14.5748 0 0 0 
326 10 3 6.36252 -13.9577 -14.2647 0 0 0 
327 10 1 7.30969 -13.7712 -14.242 0 0 0 
328 10 1 6.2554 -14.8316 -14.648 0 0 0 
329 11 3 2.92295 -13.952 -14.2648 0 0 0 
330 11 1 3.84296 -13.6576 -14.2985 0 0 0 
331 11 1 2.90618 -14.862 -14.5689 0 0 0 
332 12 3 -0.498051 -13.9517 -14.2714 0 0 0 
333 12 1 0.401157 -13.5985 -14.3262 0 0 0 
334 12 1 -0.458981 -14.859 -14.5817 0 0 0 
335 13 3 -3.90087 -13.9592 -14.2769 0 0 0 
336 13 1 -2.99404 -13.6227 -14.292 0 0 0 
337 13 1 -3.89453 -14.7914 -14.7553 0 0 0 
338 14 3 -7.307 -13.9649 -14.2836 0 0 0 
339 14 1 -6.38662 -13.6716 -14.2482 0 0 0 
340 14 1 -7.33698 -14.7153 -14.8816 0 0 0 
341 15 3 -10.7025 -13.9765 -14.2879 0 0 0 
342 15 1 -9.75537 -13.8948 -14.1207 0 0 0 
343 15 1 -10.8112 -14.6012 -15.0092 0 0 0 
344 16 3 -14.1391 -13.9916 -14.2856 0 0 0 
345 16 1 -13.2284 -13.7683 -14.0522 0 0 0 
346 16 1 -14.1064 -14.5293 -15.0801 0 0 0 
347 17 3 -17.5691 -13.989 -14.2742 0 0 0 
348 17 1 -16.7191 -13.5531 -14.1163 0 0 0 
349 17 1 -17.4136 -14.6529 -14.9482 0 0 0 
350 18 3 -21.0033 -13.9933 -14.2739 0 0 0 
351 18 1 -20.2623 -13.3724 -14.2109 0 0 0 
352 18 1 -20.7085 -14.6876 -14.8655 0 0 0 
353 19 3 -24.4219 -14.0011 -14.2904 0 0 0 
354 19 1 -23.7349 -13.3345 -14.1406 0 0 0 
355 19 1 -24.0345 -14.6192 -14.9138 0 0 0 
356 20 3 -27.835 -13.9919 -14.2995 0 0 0 
357 20 1 -27.0237 -13.48 -14.1621 0 0 0 
358 20 1 -27.5802 -14.7143 -14.8771 0 0 0 
359 21 3 -31.2539 -13.9889 -14.2979 0 0 0 
360 21 1 -30.4248 -13.5142 -14.1374 0 0 0 
361 21 1 -31.0312 -14.6881 -14.9159 0 0 0 
362 22 3 -34.6672 -13.9906 -14.2937 0 0 0 
363 22 1 -33.8118 -13.5769 -14.1063 0 0 0 
364 22 1 -34.4993 -14.6321 -14.9869 0 0 0 
365 23 3 -38.0884 -13.9923 -14.2901 0 0 0 
366 23 1 -37.226 -13.5765 -14.1401 0 0 0 
367 23 1 -37.9607 -14.6054 -15.0166 0 0 0 
368 24 3 -41.5051 -13.9902 -14.2757 0 0 0 
369 24 1 -40.6409 -13.5566 -14.2127 0 0 0 
370 24 1 -41.4166 -14.6637 -14.9523 0 0 0 
371 25 3 -44.9444 -13.9832 -14.2602 0 0 0 
372 25 1 -44.3676 -13.2608 -14.5433 0 0 0 
373 25 1 -44.6769 -14.7515 -14.7684 0 0 0 
374 26 3 -48.3592 -14.0137 -14.2696 0 0 0 
375 26 1 -48.2552 -13.061 -14.381 0 0 0 
376 26 1 -47.704 -14.4128 -14.8493 0 0 0 
377 27 3 -51.7703 -14.0371 -14.2776 0 0 0 
378 27 1 -51.8776 -13.0901 -14.1383 0 0 0 
379 27 1 -51.0055 -14.1295 -14.8575 0 0 0 
380 28 3 -55.1809 -14.0428 -14.2764 0 0 0 
381 28 1 -55.4534 -13.1459 -14.0565 0 0 0 
382 28 1 -54.4191 -13.9546 -14.8622 0 0 0 
383 29 3 -58.6023 -14.0364 -14.2864 0 0 0 
384 29 1 -58.8023 -13.1129 -14.1004 0 0 0 
385 29 1 -57.8994 -14.0292 -14.9461 0 0 0 
386 30 3 -62.0347 -14.0185 -14.2943 0 0 0 
387 30 1 -61.7632 -13.1125 -14.1085 0 0 0 
388 30 1 -61.5524 -14.2753 -15.0862 0 0 0 
389 31 3 -65.4683 -13.9784 -14.246 0 0 0 
390 31 1 -65.0063 -13.1814 -14.5352 0 0 0 
391 31 1 -65.3904 -14.6073 -14.9683 0 0 0 
392 32 3 -68.9927 -13.9657 -14.2448 0 0 0 
393 32 1 -68.7162 -13.0917 -14.5479 0 0 0 
394 32 1 -68.3422 -14.5882 -14.584 0 0 0 
395 33 3 -72.4192 -14.0159 -14.3249 0 0 0 
396 33 1 -71.8851 -13.2375 -14.4987 0 0 0 
397 33 1 -71.9283 -14.5214 -13.6664 0 0 0 
398 34 3 -75.7839 -13.9914 -14.3264 0 0 0 
399 34 1 -74.897 -13.826 -14.6665 0 0 0 
400 34 1 -75.7373 -14.8462 -13.8922 0 0 0 
401 35 3 -79.2806 -14.1143 -14.5011 0 0 0 
402 35 1 -78.3633 -14.4077 -14.5653 0 0 0 
403 35 1 -79.6231 -14.4139 -13.6536 0 0 0 
404 36 3 -82.8573 -14.3551 -14.6404 0 0 0 
405 36 1 -82.4296 -13.5118 -14.8247 0 0 0 
406 36 1 -83.5767 -14.1671 -14.0287 0 0 0 
407 37 3 37.1389 -13.9414 -14.2439 0 0 0 
408 37 1 38.0552 -13.6457 -14.1443 0 0 0 
409 37 1 37.1806 -14.7991 -14.6741 0 0 0 
410 38 3 40.5451 -13.9207 -14.2326 0 0 0 
411 38 1 41.4591 -13.6279 -14.3506 0 0 0 
412 38 1 40.5705 -14.8806 -14.2516 0 0 0 
413 39 3 43.9637 -13.8978 -14.2282 0 0 0 
414 39 1 44.8326 -13.7871 -14.6353 0 0 0 
415 39 1 44.0194 -14.7203 -13.7318 0 0 0 
416 40 3 47.3605 -13.9114 -14.2329 0 0 0 
417 40 1 48.2489 -13.8637 -14.6072 0 0 0 
418 40 1 47.4841 -13.8391 -13.277 0 0 0 
419 41 3 50.8099 -13.8829 -14.2264 0 0 0 
420 41 1 51.6833 -13.7543 -14.618 0 0 0 
421 41 1 50.9741 -14.396 -13.4257 0 0 0 
422 42 3 54.2555 -13.8855 -14.2366 0 0 0 
423 42 1 55.1336 -13.6518 -14.5633 0 0 0 
424 42 1 54.4071 -14.5864 -13.5929 0 0 0 
425 43 3 57.707 -13.8882 -14.2422 0 0 0 
426 43 1 58.582 -13.7136 -14.6163 0 0 0 
427 43 1 57.8559 -14.5107 -13.5226 0 0 0 
428 44 3 61.1593 -13.8801 -14.2432 0 0 0 
429 44 1 62.0138 -13.8783 -14.6983 0 0 0 
430 44 1 61.3292 -14.2666 -13.378 0 0 0 
431 45 3 64.6182 -13.8584 -14.2401 0 0 0 
432 45 1 65.4327 -14.0423 -14.7275 0 0 0 
433 45 1 64.7859 -14.1329 -13.3333 0 0 0 
434 46 3 68.0884 -13.8437 -14.2409 0 0 0 
435 46 1 68.8641 -14.0995 -14.7561 0 0 0 
436 46 1 68.2542 -14.1385 -13.3405 0 0 0 
437 47 3 71.577 -13.8493 -14.2334 0 0 0 
438 47 1 72.325 -14.1131 -14.7825 0 0 0 
439 47 1 71.773 -14.1638 -13.3443 0 0 0 
440 48 3 75.0442 -13.8442 -14.2019 0 0 0 
441 48 1 75.7062 -14.0843 -14.8603 0 0 0 
442 48 1 75.4134 -14.1009 -13.3483 0 0 0 
443 49 3 78.4285 -13.8697 -14.2089 0 0 0 
444 49 1 78.8157 -13.0594 -14.5552 0 0 0 
445 49 1 79.1046 -14.2498 -13.6366 0 0 0 
446 50 3 82.0722 -14.1509 -14.4496 0 0 0 
447 50 1 81.8554 -13.2377 -14.6602 0 0 0 
448 50 1 82.5177 -14.1023 -13.5955 0 0 0 
449 51 3 33.9384 -10.6544 -13.7462 0 0 0 
450 51 1 33.2152 -10.0727 -13.4799 0 0 0 
451 51 1 33.7557 -10.8846 -14.6627 0 0 0 
452 52 3 30.5278 -10.6483 -13.7695 0 0 0 
453 52 1 29.8611 -10.031 -13.4434 0 0 0 
454 52 1 30.1914 -10.9802 -14.6078 0 0 0 
455 53 3 27.0781 -10.614 -13.7649 0 0 0 
456 53 1 26.2616 -10.1465 -13.5546 0 0 0 
457 53 1 26.9089 -11.072 -14.5942 0 0 0 
458 54 3 23.6956 -10.655 -13.8062 0 0 0 
459 54 1 23.1787 -9.97265 -13.3583 0 0 0 
460 54 1 23.1344 -10.9701 -14.5243 0 0 0 
461 55 3 20.2769 -10.6717 -13.8088 0 0 0 
462 55 1 19.8639 -9.86993 -13.4613 0 0 0 
463 55 1 19.6699 -10.9973 -14.4834 0 0 0 
464 56 3 16.8435 -10.6585 -13.8048 0 0 0 
465 56 1 16.2901 -9.93361 -13.4897 0 0 0 
466 56 1 16.3106 -11.1136 -14.4658 0 0 0 
467 57 3 13.4234 -10.6476 -13.8094 0 0 0 
468 57 1 12.7797 -10.0409 -13.4238 0 0 0 
469 57 1 12.9208 -11.2062 -14.4117 0 0 0 
470 58 3 9.971 -10.6246 -13.7994 0 0 0 
471 58 1 9.19231 -10.0842 -13.6208 0 0 0 
472 58 1 9.68572 -11.252 -14.472 0 0 0 
473 59 3 6.57754 -10.6364 -13.804 0 0 0 
474 59 1 5.97313 -9.92472 -13.5535 0 0 0 
475 59 1 6.05299 -11.2053 -14.3797 0 0 0 
476 60 3 3.18271 -10.6635 -13.8278 0 0 0 
477 60 1 2.79056 -9.90376 -13.3762 0 0 0 
478 60 1 2.44942 -11.0705 -14.3088 0 0 0 
479 61 3 -0.238298 -10.6659 -13.8334 0 0 0 
480 61 1 -0.545316 -9.81975 -13.4805 0 0 0 
481 61 1 -1.01891 -11.0816 -14.2234 0 0 0 
482 62 3 -3.67075 -10.6451 -13.8105 0 0 0 
483 62 1 -3.99704 -9.73878 -13.741 0 0 0 
484 62 1 -4.41066 -11.1624 -14.154 0 0 0 
485 63 3 -7.09565 -10.6351 -13.8164 0 0 0 
486 63 1 -7.41625 -9.72511 -13.8748 0 0 0 
487 63 1 -7.86806 -11.1937 -13.9766 0 0 0 
488 64 3 -10.5502 -10.5676 -13.8125 0 0 0 
489 64 1 -11.1303 -9.8519 -14.0991 0 0 0 
490 64 1 -11.1034 -11.3579 -13.7686 0 0 0 
491 65 3 -13.9506 -10.5925 -13.8308 0 0 0 
492 65 1 -14.2771 -9.68661 -13.7985 0 0 0 
493 65 1 -14.7287 -11.1648 -13.7747 0 0 0 
494 66 3 -17.3708 -10.6076 -13.8313 0 0 0 
495 66 1 -17.567 -9.66826 -13.9299 0 0 0 
496 66 1 -18.2182 -11.0479 -13.6751 0 0 0 
497 67 3 -20.8002 -10.6097 -13.837 0 0 0 
498 67 1 -20.9561 -9.70801 -14.1433 0 0 0 
499 67 1 -21.6433 -10.9321 -13.4891 0 0 0 
500 68 3 -24.2177 -10.6121 -13.8466 0 0 0 
501 68 1 -24.3636 -9.70819 -14.1546 0 0 0 
502 68 1 -25.01 -10.8597 -13.3525 0 0 0 
503 69 3 -27.6624 -10.589 -13.8355 0 0 0 
504 69 1 -28.0229 -9.81567 -14.2894 0 0 0 
505 69 1 -28.3904 -10.9793 -13.3369 0 0 0 
506 70 3 -31.0783 -10.5904 -13.8415 0 0 0 
507 70 1 -31.4295 -9.79186 -14.2591 0 0 0 
508 70 1 -31.8218 -11.0061 -13.387 0 0 0 
509 71 3 -34.485 -10.602 -13.8368 0 0 0 
510 71 1 -34.817 -9.73377 -14.1031 0 0 0 
511 71 1 -35.2426 -11.0811 -13.4752 0 0 0 
512 72 3 -37.9011 -10.6227 -13.8524 0 0 0 
513 72 1 -38.2126 -9.7215 -14.0114 0 0 0 
514 72 1 -38.6667 -11.1259 -13.5454 0 0 0 
515 73 3 -41.3185 -10.638 -13.8424 0 0 0 
516 73 1 -41.676 -9.74698 -13.9472 0 0 0 
517 73 1 -42.062 -11.2093 -13.6098 0 0 0 
518 74 3 -44.7492 -10.6094 -13.8581 0 0 0 
519 74 1 -45.122 -9.77426 -14.1645 0 0 0 
520 74 1 -45.4347 -11.0433 -13.3358 0 0 0 
521 75 3 -48.1463 -10.5989 -13.8458 0 0 0 
522 75 1 -48.5362 -9.81829 -14.2615 0 0 0 
523 75 1 -48.71 -10.7992 -13.0887 0 0 0 
524 76 3 -51.579 -10.5758 -13.8244 0 0 0 
525 76 1 -52.1227 -9.95554 -14.3251 0 0 0 
526 76 1 -52.0837 -10.7636 -13.0221 0 0 0 
527 77 3 -55.0051 -10.5748 -13.831 0 0 0 
528 77 1 -55.6221 -10.0671 -14.369 0 0 0 
529 77 1 -55.4598 -10.7183 -12.9888 0 0 0 
530 78 3 -58.4365 -10.617 -13.839 0 0 0 
531 78 1 -58.8037 -9.86467 -14.3179 0 0 0 
532 78 1 -58.9853 -10.6946 -13.0444 0 0 0 
533 79 3 -61.8807 -10.6393 -13.8252 0 0 0 
534 79 1 -62.0892 -9.7861 -14.2288 0 0 0 
535 79 1 -62.577 -10.7954 -13.176 0 0 0 
536 80 3 -65.3192 -10.5785 -13.7946 0 0 0 
537 80 1 -66.0176 -10.066 -14.2153 0 0 0 
538 80 1 -65.7254 -11.0671 -13.0685 0 0 0 
539 81 3 -68.8079 -10.605 -13.8467 0 0 0 
540 81 1 -68.9397 -9.70908 -14.1904 0 0 0 
541 81 1 -68.7064 -10.5035 -12.8934 0 0 0 
542 82 3 -72.4547 -10.6267 -13.9031 0 0 0 
543 82 1 -71.7538 -10.3375 -14.4931 0 0 0 
544 82 1 -72.0495 -11.1611 -13.211 0 0 0 
545 83 3 -75.7034 -10.6363 -13.9038 0 0 0 
546 83 1 -75.0514 -11.0717 -14.4599 0 0 0 
547 83 1 -75.4026 -10.7451 -12.9936 0 0 0 
548 84 3 -78.8373 -10.4355 -13.8101 0 0 0 
549 84 1 -78.2174 -10.7268 -14.4893 0 0 0 
550 84 1 -78.8231 -11.1209 -13.135 0 0 0 
551 85 3 -82.2459 -11.0011 -13.9701 0 0 0 
552 85 1 -81.3899 -10.9564 -14.4065 0 0 0 
553 85 1 -82.6955 -10.1647 -14.1431 0 0 0 
554 86 3 37.3888 -10.6579 -13.7446 0 0 0 
555 86 1 36.6367 -10.283 -13.2702 0 0 0 
556 86 1 37.096 -10.7805 -14.6541 0 0 0 
557 87 3 40.8087 -10.6426 -13.7216 0 0 0 
558 87 1 39.949 -10.3328 -13.4083 0 0 0 
559 87 1 40.7053 -10.777 -14.67 0 0 0 
560 88 3 44.2288 -10.6156 -13.6711 0 0 0 
561 88 1 43.2893 -10.4112 -13.6096 0 0 0 
562 88 1 44.3594 -10.9862 -14.5494 0 0 0 
563 89 3 47.6531 -10.5775 -13.6545 0 0 0 
564 89 1 46.7822 -10.1944 -13.8006 0 0 0 
565 89 1 47.8444 -11.1308 -14.4168 0 0 0 
566 90 3 51.118 -10.5419 -13.64 0 0 0 
567 90 1 50.2921 -10.0525 -13.7158 0 0 0 
568 90 1 51.0917 -11.2412 -14.2997 0 0 0 
569 91 3 54.5814 -10.5328 -13.657 0 0 0 
570 91 1 53.9173 -9.86422 -13.8616 0 0 0 
571 91 1 54.3094 -11.3347 -14.117 0 0 0 
572 92 3 58.0217 -10.5284 -13.6574 0 0 0 
573 92 1 57.3664 -9.83118 -13.7717 0 0 0 
574 92 1 57.5865 -11.3511 -13.911 0 0 0 
575 93 3 61.4535 -10.5267 -13.6774 0 0 0 
576 93 1 60.7438 -9.88588 -13.5836 0 0 0 
577 93 1 61.0429 -11.3971 -13.6867 0 0 0 
578 94 3 64.8635 -10.5403 -13.6978 0 0 0 
579 94 1 64.1856 -9.89781 -13.4662 0 0 0 
580 94 1 64.4326 -11.4001 -13.7089 0 0 0 
581 95 3 68.2394 -10.519 -13.6573 0 0 0 
582 95 1 67.6197 -9.78764 -13.5544 0 0 0 
583 95 1 67.6938 -11.3039 -13.7889 0 0 0 
584 96 3 71.598 -10.4852 -13.6282 0 0 0 
585 96 1 71.0628 -9.69589 -13.7675 0 0 0 
586 96 1 71.0172 -11.2344 -13.8175 0 0 0 
587 97 3 74.961 -10.482 -13.6487 0 0 0 
588 97 1 74.5896 -9.71292 -14.0947 0 0 0 
589 97 1 74.3328 -11.2043 -13.7876 0 0 0 
590 98 3 78.3447 -10.4741 -13.5705 0 0 0 
591 98 1 78.3171 -9.52322 -13.7005 0 0 0 
592 98 1 77.4603 -10.7425 -13.2803 0 0 0 
593 99 3 81.7343 -10.8535 -13.9031 0 0 0 
594 99 1 82.0529 -9.95881 -13.7442 0 0 0 
595 99 1 80.8475 -10.7592 -14.265 0 0 0 
596 100 3 34.0269 -7.26436 -13.6369 0 0 0 
597 100 1 34.1878 -6.38422 -13.9941 0 0 0 
598 100 1 33.0848 -7.28322 -13.4091 0 0 0 
599 101 3 30.6187 -7.25114 -13.6148 0 0 0 
600 101 1 30.7598 -6.37242 -13.9873 0 0 0 
601 101 1 29.6548 -7.35186 -13.5948 0 0 0 
602 102 3 27.1953 -7.23562 -13.6018 0 0 0 
603 102 1 27.2062 -6.37151 -13.1763 0 0 0 
604 102 1 26.2696 -7.50149 -13.6706 0 0 0 
605 103 3 23.7629 -7.29519 -13.6195 0 0 0 
606 103 1 24.1074 -6.41463 -13.7987 0 0 0 
607 103 1 22.8229 -7.1739 -13.4411 0 0 0 
608 104 3 20.3318 -7.25096 -13.6296 0 0 0 
609 104 1 20.651 -6.47667 -14.106 0 0 0 
610 104 1 19.415 -7.04236 -13.3975 0 0 0 
611 105 3 16.9014 -7.21257 -13.5812 0 0 0 
612 105 1 17.0413 -6.26562 -13.6829 0 0 0 
613 105 1 15.9535 -7.33727 -13.739 0 0 0 
614 106 3 13.4929 -7.25222 -13.5996 0 0 0 
615 106 1 13.6896 -6.32048 -13.4532 0 0 0 
616 106 1 12.5283 -7.30957 -13.5279 0 0 0 
617 107 3 10.0867 -7.23076 -13.608 0 0 0 
618 107 1 10.2065 -6.35694 -13.2228 0 0 0 
619 107 1 9.30927 -7.60414 -13.1783 0 0 0 
620 108 3 6.63961 -7.25226 -13.629 0 0 0 
621 108 1 7.17922 -6.61544 -13.1576 0 0 0 
622 108 1 5.78166 -7.25921 -13.1903 0 0 0 
623 109 3 3.21875 -7.26689 -13.6271 0 0 0 
624 109 1 3.63879 -6.42172 -13.4479 0 0 0 
625 109 1 2.29393 -7.16876 -13.3754 0 0 0 
626 110 3 -0.197908 -7.241 -13.6181 0 0 0 
627 110 1 0.101326 -6.35054 -13.8271 0 0 0 
628 110 1 -1.13749 -7.16639 -13.4167 0 0 0 
629 111 3 -3.62244 -7.23038 -13.627 0 0 0 
630 111 1 -3.3168 -6.31913 -13.6154 0 0 0 
631 111 1 -4.53137 -7.21083 -13.3055 0 0 0 
632 112 3 -7.05196 -7.25263 -13.6177 0 0 0 
633 112 1 -6.67687 -6.39149 -13.4148 0 0 0 
634 112 1 -8.00572 -7.13811 -13.5033 0 0 0 
635 113 3 -10.4241 -7.26909 -13.613 0 0 0 
636 113 1 -10.4287 -6.30839 -13.6716 0 0 0 
637 113 1 -11.2554 -7.50711 -13.1804 0 0 0 
638 114 3 -13.8629 -7.25728 -13.6028 0 0 0 
639 114 1 -13.6068 -6.54687 -14.2023 0 0 0 
640 114 1 -14.7823 -7.09511 -13.3608 0 0 0 
641 115 3 -17.2859 -7.2566 -13.6266 0 0 0 
642 115 1 -16.9628 -6.46502 -14.0717 0 0 0 
643 115 1 -18.1377 -7.00556 -13.243 0 0 0 
644 116 3 -20.7037 -7.25759 -13.5988 0 0 0 
645 116 1 -20.5227 -6.32199 -13.7424 0 0 0 
646 116 1 -21.6073 -7.30391 -13.264 0 0 0 
647 117 3 -24.1163 -7.32205 -13.6039 0 0 0 
648 117 1 -23.7591 -6.42839 -13.6826 0 0 0 
649 117 1 -24.9501 -7.20612 -13.1291 0 0 0 
650 118 3 -27.5445 -7.29576 -13.6006 0 0 0 
651 118 1 -27.277 -6.39893 -13.3743 0 0 0 
652 118 1 -28.1638 -7.58112 -12.9183 0 0 0 
653 119 3 -30.9808 -7.29819 -13.6171 0 0 0 
654 119 1 -30.4227 -6.60711 -13.2504 0 0 0 
655 119 1 -31.7192 -7.42402 -13.0069 0 0 0 
656 120 3 -34.403 -7.31361 -13.6386 0 0 0 
657 120 1 -33.9138 -6.48633 -13.5773 0 0 0 
658 120 1 -35.1907 -7.22018 -13.0876 0 0 0 
659 121 3 -37.8154 -7.26328 -13.644 0 0 0 
660 121 1 -37.4158 -6.38831 -13.6764 0 0 0 
661 121 1 -38.6348 -7.17763 -13.1419 0 0 0 
662 122 3 -41.2634 -7.22602 -13.6179 0 0 0 
663 122 1 -40.9136 -6.34346 -13.4628 0 0 0 
664 122 1 -42.2166 -7.15521 -13.4872 0 0 0 
665 123 3 -44.6159 -7.30253 -13.6454 0 0 0 
666 123 1 -44.5626 -6.34304 -13.5762 0 0 0 
667 123 1 -45.4515 -7.53556 -13.2203 0 0 0 
668 124 3 -48.0463 -7.29186 -13.6308 0 0 0 
669 124 1 -47.716 -6.43875 -13.3307 0 0 0 
670 124 1 -48.8945 -7.41844 -13.1879 0 0 0 
671 125 3 -51.475 -7.27351 -13.6274 0 0 0 
672 125 1 -51.1857 -6.53844 -13.0816 0 0 0 
673 125 1 -52.3704 -7.49134 -13.345 0 0 0 
674 126 3 -54.9025 -7.26465 -13.6268 0 0 0 
675 126 1 -54.652 -6.56773 -13.0163 0 0 0 
676 126 1 -55.8255 -7.47651 -13.4513 0 0 0 
677 127 3 -58.3267 -7.30245 -13.6476 0 0 0 
678 127 1 -57.9574 -6.52666 -13.2149 0 0 0 
679 127 1 -59.2571 -7.31342 -13.3904 0 0 0 
680 128 3 -61.773 -7.26434 -13.6349 0 0 0 
681 128 1 -61.5372 -6.3969 -13.28 0 0 0 
682 128 1 -62.7389 -7.28339 -13.5871 0 0 0 
683 129 3 -65.1753 -7.26717 -13.6618 0 0 0 
684 129 1 -65.2708 -6.34002 -13.4051 0 0 0 
685 129 1 -65.9392 -7.73792 -13.319 0 0 0 
686 130 3 -68.674 -7.30853 -13.6634 0 0 0 
687 130 1 -68.0109 -6.77945 -14.1171 0 0 0 
688 130 1 -69.0809 -6.72002 -13.0072 0 0 0 
689 131 3 -72.0458 -7.15848 -13.6668 0 0 0 
690 131 1 -72.5701 -6.65281 -14.2931 0 0 0 
691 131 1 -72.607 -7.89033 -13.3781 0 0 0 
692 132 3 -75.7118 -7.15089 -13.8783 0 0 0 
693 132 1 -76.4818 -6.76964 -14.3131 0 0 0 
694 132 1 -75.5916 -8.01789 -14.294 0 0 0 
695 133 3 -78.8262 -7.26749 -13.8109 0 0 0 
696 133 1 -79.3744 -8.045 -13.9767 0 0 0 
697 133 1 -78.2464 -7.5159 -13.079 0 0 0 
698 134 3 -82.4123 -7.32663 -14.0675 0 0 0 
699 134 1 -81.5106 -7.30277 -13.7406 0 0 0 
700 134 1 -82.9609 -6.93984 -13.3763 0 0 0 
701 135 3 37.4233 -7.2062 -13.6184 0 0 0 
702 135 1 37.4391 -6.42514 -13.0563 0 0 0 
703 135 1 36.4912 -7.42272 -13.7519 0 0 0 
704 136 3 40.8734 -7.21847 -13.6366 0 0 0 
705 136 1 40.8295 -6.3891 -13.1492 0 0 0 
706 136 1 39.9516 -7.51259 -13.7201 0 0 0 
707 137 3 44.267 -7.22273 -13.6158 0 0 0 
708 137 1 44.2154 -6.26341 -13.5545 0 0 0 
709 137 1 43.3511 -7.51879 -13.7312 0 0 0 