LAMMPS 2005 Description - Generated by XenoView

        6193  atoms
        4192  bonds
        2335  angles
         282  dihedrals

           3  atom types
           2  bond types
           3  angle types
           1  dihedral types
           1  improper types

  -20.0000000000   20.0000000000 xlo xhi
  -40.0000000000   40.0000000000 ylo yhi
  -20.0000000000   20.0000000000 zlo zhi

Masses

  1   1.007970  h   
  2  15.999400  o   
  3  12.011150  c   

Pair Coeffs

  1   0.0200000000   2.9950000000
  2   0.2400000000   3.5350000000
  3   0.0540000000   4.0100000000

Bond Coeffs

  1      0.9600    493.8480      0.0000      0.0000
  2      1.1010    345.0000   -691.8900    844.6000

Angle Coeffs

  1    109.0000     58.5000      0.0000      0.0000
  2      0.0000      0.0000      0.0000      0.0000
  3    107.6600     39.6410    -12.9210     -2.4318

Dihedral Coeffs

  1     0.0000     0.0000     0.0000     0.0000     0.0000     0.0000

Improper Coeffs

  1      0.0000      0.0000

BondBond Coeffs

  1      0.0000      0.9600      0.9600
  2      0.0000      1.1010      1.1010
  3      5.3316      1.1010      1.1010

BondAngle Coeffs

  1      0.0000      0.0000      0.9600      0.9600
  2      0.0000      0.0000      1.1010      1.1010
  3     18.1030     18.1030      1.1010      1.1010

AngleAngle Coeffs

  1     -0.3157     -0.3157     -0.3157    107.6600    107.6600    107.6600

AngleAngleTorsion Coeffs

  1      0.0000      0.0000    107.6600

EndBondTorsion Coeffs

  1      0.0000      0.0000      0.0000      0.0000      0.0000      0.0000      1.1010      1.1010

MiddleBondTorsion Coeffs

  1      0.0000      0.0000      0.0000      1.1010

BondBond13 Coeffs

  1      0.0000      1.1010      1.1010

AngleTorsion Coeffs

  1      0.0000      0.0000      0.0000      0.0000      0.0000      0.0000      0.0000    107.6600

Atoms

      1      1   1  0.410000   -17.403921127   -37.909690857   -16.893035889
      2      1   1  0.410000   -17.929479599   -36.949741364   -18.009140015
      3      1   2 -0.820000   -17.636953354   -37.844993591   -17.821771622
      4      2   1  0.000000    -0.303067684    -9.021804810    -0.786903799
      5      2   1  0.000000    -1.369568825   -10.369125366    -0.241091549
      6      2   1  0.000000    -2.082854748    -8.835227966    -0.864718139
      7      2   1  0.000000    -1.252293110    -8.843513489     0.734867215
      8      2   3  0.000000    -1.252185822    -9.268917084    -0.287599146
      9      2   1  0.000000    -0.500500202   -11.938180923    -0.054597080
     10      2   1  0.000000    -1.893316746   -11.819879532    -1.174611807
     11      2   3  0.000000    -1.483716488   -11.470428467    -0.214747012
     12      2   1  0.000000    -0.125009537    -5.964981079     2.390855312
     13      2   1  0.000000    -1.099869251    -7.323013306     1.714262247
     14      2   1  0.000000    -0.678872108    -5.893386841     0.677034020
     15      2   1  0.000000    -1.861187935    -5.718040466     2.025893688
     16      2   3  0.000000    -0.941123009    -6.226856232     1.700284719
     17      2   1  0.000000    -0.459196091    -8.883239746     2.352511883
     18      2   1  0.000000    -2.228269100    -8.629947662     2.234555721
     19      2   3  0.000000    -1.259540558    -8.418144226     1.757370949
     20      2   1  0.000000     1.129006147    -3.260524750    -0.546167791
     21      2   1  0.000000    -0.188086510    -4.475914001    -0.346354187
     22      2   1  0.000000    -0.503905296    -2.917739868    -1.197336912
     23      2   1  0.000000    -0.232152462    -2.918411255     0.584580064
     24      2   3  0.000000     0.050251961    -3.394531250    -0.374616921
     25      2   1  0.000000     0.453735352    -6.122264862    -0.706102312
     26      2   1  0.000000    -1.270476818    -5.751159668    -1.019779444
     27      2   3  0.000000    -0.420938492    -5.558876038    -0.346979797
     28      2   1  0.000000     0.932476044    -0.129890442     2.074316978
     29      2   1  0.000000    -0.259858608    -1.364044189     1.521209478
     30      2   1  0.000000    -0.812191010     0.274017334     2.034360886
     31      2   3  0.000000    -0.010460854    -0.285034180     1.528383732
     32      2   1  0.000000     0.023074150    -2.930084229     2.368936300
     33      2   1  0.000000    -1.598161697    -2.558525085     1.703898907
     34      2   3  0.000000    -0.515725613    -2.441444397     1.542915344
     35      2   1  0.000000     1.321564436     2.968357086    -0.959392250
     36      2   1  0.000000     0.269342899     1.562873840    -0.549874723
     37      2   1  0.000000    -0.440093517     3.054386139    -1.273400307
     38      2   1  0.000000     0.170989037     3.093048096     0.421955943
     39      2   3  0.000000     0.329906940     2.668216705    -0.588327348
     40      2   1  0.000000     1.132066727     0.040473938    -0.985763490
     41      2   1  0.000000    -0.649379253     0.131507874    -1.148244381
     42      2   1  0.000000     0.099082947     0.085876465     0.490648091
     43      2   3  0.000000     0.212768555     0.456890106    -0.546569407
     44      2   1  0.000000     1.576994419     5.819232941     1.589079976
     45      2   1  0.000000     0.253483295     4.606632233     1.420241594
     46      2   1  0.000000     0.209175587     6.146900177     0.461943477
     47      2   1  0.000000    -0.050286293     6.180500031     2.245335817
     48      2   3  0.000000     0.496429443     5.687065125     1.427682161
     49      2   1  0.000000     0.657722473     3.010818481     2.155416965
     50      2   1  0.000000    -1.039486408     3.387454987     1.724334240
     51      2   3  0.000000     0.011531830     3.525932312     1.428706288
     52      2   1  0.000000     0.341043472     9.239788055    -1.237085342
     53      2   1  0.000000    -0.117668629     7.697284698    -0.423342407
     54      2   1  0.000000    -1.234631538     9.112209320    -0.394337475
     55      2   1  0.000000     0.291423321     9.165107727     0.563251197
     56      2   3  0.000000    -0.178940773     8.801895142    -0.371368349
     57      2   1  0.000000     0.678283215     6.318477631    -1.269924402
     58      2   1  0.000000    -1.053039074     6.208072662    -0.823338211
     59      2   3  0.000000    -0.070463181     6.594230652    -0.511778414
     60      2   1  0.000000     1.872371912    12.076850891     1.317433834
     61      2   1  0.000000     0.794185162    10.641819000     1.491183877
     62      2   1  0.000000     0.171167374    12.166877747     0.730102420
     63      2   1  0.000000     0.524303436    12.114448547     2.496613026
     64      2   3  0.000000     0.839381695    11.748291016     1.507733107
     65      2   1  0.000000     1.783428669     9.136421204     1.573604107
     66      2   1  0.000000     0.176139355     9.188903809     2.361801624
     67      2   3  0.000000     0.760612011     9.534805298     1.495902419
     68      2   1  0.000000     0.460127831    15.112323761    -0.702073514
     69      2   1  0.000000    -0.434067249    13.689765930    -0.048795581
     70      2   1  0.000000    -1.318364143    15.193286896    -0.504302084
     71      2   1  0.000000    -0.254527092    15.193832397     0.950912476
     72      2   3  0.000000    -0.386522770    14.795902252    -0.074283481
     73      2   1  0.000000    -0.195899010    12.198600769    -1.034272909
     74      2   1  0.000000    -1.533456802    12.275398254     0.154937685
     75      2   3  0.000000    -0.496862888    12.584239960    -0.048354387
     76      2   1  0.000000    -0.491625309    18.189956665     2.913034678
     77      2   1  0.000000    -0.560065269    16.614227295     2.038430929
     78      2   1  0.000000    -0.901836395    18.164100647     1.158019423
     79      2   1  0.000000    -2.071669102    17.537223816     2.377664089
     80      2   3  0.000000    -1.005184174    17.625209808     2.120125055
     81      2   1  0.000000     0.954519272    15.650249481     2.207988739
     82      2   1  0.000000    -0.613555908    14.937110901     2.698649883
     83      2   3  0.000000    -0.119435787    15.600173950     1.972341061
     84      2   1  0.000000    -0.088719368    21.326595306     0.836817443
     85      2   1  0.000000    -0.930320740    19.800399780     0.373338938
     86      2   1  0.000000    -1.406284332    21.370265961    -0.376083076
     87      2   1  0.000000    -1.793204784    21.058265686     1.356592417
     88      2   3  0.000000    -1.055563927    20.886978149     0.548394263
     89      2   1  0.000000     0.182226658    18.518737793    -0.237564981
     90      2   1  0.000000    -1.582742214    18.362876892    -0.499035656
     91      2   3  0.000000    -0.808467388    18.712974548     0.200459719
     92      2   1  0.000000    -3.430274963    23.539154053     3.362315893
     93      2   1  0.000000    -2.809414387    22.279186249     2.233389616
     94      2   1  0.000000    -3.972723961    23.528755188     1.654719830
     95      2   3  0.000000    -3.121585846    23.337554932     2.325513363
     96      2   1  0.000000    -2.085346699    20.891448975     3.127456188
     97      2   1  0.000000    -3.424749374    20.604511261     1.973080635
     98      2   3  0.000000    -2.527601242    21.210166931     2.171380997
     99      2   1  0.000000    -1.846750736    27.210090637     0.743636668
    100      2   1  0.000000    -1.780138493    25.725692749     1.764960289
    101      2   1  0.000000    -3.192211151    26.840721130     1.866069078
    102      2   1  0.000000    -1.597161770    27.363876343     2.522620916
    103      2   3  0.000000    -2.102570057    26.784408569     1.725694656
    104      2   1  0.000000    -0.643067837    24.568603516     2.551854134
    105      2   1  0.000000    -1.033720016    24.389633179     0.812763453
    106      2   1  0.000000    -2.281658173    24.006263733     2.055104733
    107      2   3  0.000000    -1.436848640    24.673301697     1.796693325
    108      2   1  0.000000    -0.332987785    30.574546814     3.349534988
    109      2   1  0.000000    -1.199728489    29.001510620     3.194599867
    110      2   1  0.000000    -1.598381042    30.378608704     2.081145287
    111      2   1  0.000000    -2.055676937    30.458084106     3.821733475
    112      2   3  0.000000    -1.297114849    30.101203918     3.109779596
    113      2   1  0.000000     0.021528244    27.676277161     3.251067877
    114      2   1  0.000000    -1.425996780    27.596878052     4.301855564
    115      2   3  0.000000    -1.051835060    27.910949707     3.315889359
    116      2   1  0.000000    -1.277765751    33.171768188     0.024583042
    117      2   1  0.000000    -1.918808460    31.773101807     0.964586318
    118      2   1  0.000000    -2.983188629    33.174880981     0.570720613
    119      2   1  0.000000    -1.657805443    33.375900269     1.775160789
    120      2   3  0.000000    -1.958857536    32.872406006     0.835854113
    121      2   1  0.000000    -1.124308586    30.277374268     0.345170349
    122      2   1  0.000000    -2.856276512    30.242218018     0.797245324
    123      2   3  0.000000    -1.874005318    30.669616699     1.048885584
    124      2   1  0.000000     0.075513363    35.789901733     1.172972798
    125      2   1  0.000000    -0.952271461    34.932197571     2.383108139
    126      2   1  0.000000    -1.400115967    36.582824707     1.809525132
    127      2   1  0.000000     0.028922558    36.364715576     2.869830370
    128      2   3  0.000000    -0.562816620    35.915817261     2.059317350
    129      2   1  0.000000    -0.523501396    33.370765686     3.176403046
    130      2   1  0.000000    -2.171399117    34.042877197     3.369386911
    131      2   3  0.000000    -1.326285839    33.931282043     2.674168348
    132      2   1  0.000000    -5.537068367   -30.660013199    -1.533334494
    133      2   1  0.000000    -6.295546532   -31.782295227    -0.343210518
    134      2   1  0.000000    -6.847043991   -30.070142746    -0.463916838
    135      2   1  0.000000    -5.222762108   -30.435028076     0.227098167
    136      2   3  0.000000    -5.974931717   -30.738431931    -0.526819527
    137      2   1  0.000000    -5.966202736   -33.298770905     0.576833546
    138      2   1  0.000000    -6.597385406   -33.392780304    -1.097887993
    139      2   1  0.000000    -7.657703400   -32.818485260     0.228703320
    140      2   3  0.000000    -6.628907204   -32.821208954    -0.159180224
    141      2   1  0.000000    -3.518939018   -27.516256332     1.389195919
    142      2   1  0.000000    -4.482249260   -29.003753662     1.059320450
    143      2   1  0.000000    -4.824233055   -27.474559784     0.146092355
    144      2   1  0.000000    -5.233510971   -27.594995499     1.897466421
    145      2   3  0.000000    -4.515055656   -27.898563385     1.121094227
    146      2   1  0.000000    -3.482110977   -30.459415436     0.695195436
    147      2   1  0.000000    -4.745352745   -30.542091370     1.962089300
    148      2   3  0.000000    -4.484055519   -30.108682632     0.984821022
    149      2   1  0.000000    -4.518517494   -24.488908768    -1.633850574
    150      2   1  0.000000    -5.139875412   -25.968038559    -0.813095748
    151      2   1  0.000000    -6.169086456   -24.493482590    -0.940441430
    152      2   1  0.000000    -4.736978531   -24.488029480     0.154491305
    153      2   3  0.000000    -5.140468597   -24.861185074    -0.806572497
    154      2   1  0.000000    -4.511442184   -27.447378159    -1.628120661
    155      2   1  0.000000    -6.195681572   -27.413513184    -1.022297382
    156      2   3  0.000000    -5.167102814   -27.074495316    -0.827562749
    157      2   1  0.000000    -4.323436737   -21.442060471     2.006062746
    158      2   1  0.000000    -4.679462433   -23.025352478     1.223946571
    159      2   1  0.000000    -6.022917747   -21.935697556     1.729212284
    160      2   3  0.000000    -5.001881599   -21.970870972     1.319962621
    161      2   1  0.000000    -3.271157265   -24.147350311     1.147554636
    162      2   1  0.000000    -4.785527229   -24.672885895     1.947152376
    163      2   3  0.000000    -4.369137764   -24.082620621     1.116992950
    164      2   1  0.000000    -3.644771576   -18.641916275    -1.418904543
    165      2   1  0.000000    -4.505473137   -19.971290588    -0.558871806
    166      2   1  0.000000    -4.806161880   -18.250953674    -0.113012910
    167      2   1  0.000000    -3.223600388   -19.011041641     0.294805884
    168      2   3  0.000000    -4.044259071   -18.970928192    -0.447926462
    169      2   1  0.000000    -4.446070671   -21.569322586    -1.390556335
    170      2   1  0.000000    -6.028926849   -20.833465576    -0.992235243
    171      2   1  0.000000    -4.984415054   -21.478393555     0.328188896
    172      2   3  0.000000    -4.990446091   -20.962360382    -0.651758969
    173      2   1  0.000000     0.085186958   -17.998224258     0.534933567
    174      2   1  0.000000    -1.665442944   -18.276365280     0.866278172
    175      2   1  0.000000    -1.142934799   -16.880729675    -0.167485118
    176      2   1  0.000000    -0.807642937   -16.872774124     1.603650093
    177      2   3  0.000000    -0.884429932   -17.507432938     0.707984209
    178      2   1  0.000000    -1.959077358   -20.044086456     1.057921886
    179      2   1  0.000000    -2.876989841   -18.876220703     2.058651686
    180      2   3  0.000000    -2.431285381   -19.050106049     1.067413568
    181      2   1  0.000000    -3.283224106   -14.226829529    -1.337765455
    182      2   1  0.000000    -2.302296162   -15.649791718    -0.824204981
    183      2   1  0.000000    -4.101669312   -15.694179535    -0.717657506
    184      2   1  0.000000    -3.169262886   -14.644184113     0.412304223
    185      2   3  0.000000    -3.212276459   -15.054199219    -0.615516365
    186      2   1  0.000000    -0.549464226   -15.554185867    -1.234087229
    187      2   1  0.000000    -1.554094315   -16.868467331    -1.922342539
    188      2   3  0.000000    -1.388208389   -16.238307953    -1.035501480
    189      2   1  0.000000    -3.821246147   -11.554531097     1.294076920
    190      2   1  0.000000    -2.993982315   -13.150405884     1.427834749
    191      2   1  0.000000    -2.417608738   -11.739261627     2.391313553
    192      2   1  0.000000    -2.167912960   -11.760475159     0.606063902
    193      2   3  0.000000    -2.849205017   -12.052536011     1.428620100
    194      2   1  0.000000    -2.308800220   -14.717969894     1.994539976
    195      2   1  0.000000    -4.084136009   -14.485063553     1.957941532
    196      2   3  0.000000    -3.139124870   -14.248140335     1.446215987
    197      3   1  0.410000   -13.403921127   -37.909690857   -16.893035889
    198      3   1  0.410000   -13.929479599   -36.949741364   -18.009140015
    199      3   2 -0.820000   -13.636953354   -37.844993591   -17.821771622
    200      4   1  0.410000    -9.403921127   -37.909690857   -16.893035889
    201      4   1  0.410000    -9.929479599   -36.949741364   -18.009140015
    202      4   2 -0.820000    -9.636953354   -37.844993591   -17.821771622
    203      5   1  0.410000    -5.403921127   -37.909690857   -16.893035889
    204      5   1  0.410000    -5.929479599   -36.949741364   -18.009140015
    205      5   2 -0.820000    -5.636953354   -37.844993591   -17.821771622
    206      6   1  0.410000    -1.403921127   -37.909690857   -16.893035889
    207      6   1  0.410000    -1.929479599   -36.949741364   -18.009140015
    208      6   2 -0.820000    -1.636953354   -37.844993591   -17.821771622
    209      7   1  0.410000     2.596078873   -37.909690857   -16.893035889
    210      7   1  0.410000     2.070520401   -36.949741364   -18.009140015
    211      7   2 -0.820000     2.363046646   -37.844993591   -17.821771622
    212      8   1  0.410000     6.596078873   -37.909690857   -16.893035889
    213      8   1  0.410000     6.070520401   -36.949741364   -18.009140015
    214      8   2 -0.820000     6.363046646   -37.844993591   -17.821771622
    215      9   1  0.410000    10.596078873   -37.909690857   -16.893035889
    216      9   1  0.410000    10.070520401   -36.949741364   -18.009140015
    217      9   2 -0.820000    10.363046646   -37.844993591   -17.821771622
    218     10   1  0.410000    14.596078873   -37.909690857   -16.893035889
    219     10   1  0.410000    14.070520401   -36.949741364   -18.009140015
    220     10   2 -0.820000    14.363046646   -37.844993591   -17.821771622
    221     11   1  0.410000    18.596078873   -37.909690857   -16.893035889
    222     11   1  0.410000    18.070520401   -36.949741364   -18.009140015
    223     11   2 -0.820000    18.363046646   -37.844993591   -17.821771622
    224     12   1  0.410000   -17.403921127   -33.909690857   -16.893035889
    225     12   1  0.410000   -17.929479599   -32.949741364   -18.009140015
    226     12   2 -0.820000   -17.636953354   -33.844993591   -17.821771622
    227     13   1  0.410000   -13.403921127   -33.909690857   -16.893035889
    228     13   1  0.410000   -13.929479599   -32.949741364   -18.009140015
    229     13   2 -0.820000   -13.636953354   -33.844993591   -17.821771622
    230     14   1  0.410000    -9.403921127   -33.909690857   -16.893035889
    231     14   1  0.410000    -9.929479599   -32.949741364   -18.009140015
    232     14   2 -0.820000    -9.636953354   -33.844993591   -17.821771622
    233     15   1  0.410000    -5.403921127   -33.909690857   -16.893035889
    234     15   1  0.410000    -5.929479599   -32.949741364   -18.009140015
    235     15   2 -0.820000    -5.636953354   -33.844993591   -17.821771622
    236     16   1  0.410000    -1.403921127   -33.909690857   -16.893035889
    237     16   1  0.410000    -1.929479599   -32.949741364   -18.009140015
    238     16   2 -0.820000    -1.636953354   -33.844993591   -17.821771622
    239     17   1  0.410000     2.596078873   -33.909690857   -16.893035889
    240     17   1  0.410000     2.070520401   -32.949741364   -18.009140015
    241     17   2 -0.820000     2.363046646   -33.844993591   -17.821771622
    242     18   1  0.410000     6.596078873   -33.909690857   -16.893035889
    243     18   1  0.410000     6.070520401   -32.949741364   -18.009140015
    244     18   2 -0.820000     6.363046646   -33.844993591   -17.821771622
    245     19   1  0.410000    10.596078873   -33.909690857   -16.893035889
    246     19   1  0.410000    10.070520401   -32.949741364   -18.009140015
    247     19   2 -0.820000    10.363046646   -33.844993591   -17.821771622
    248     20   1  0.410000    14.596078873   -33.909690857   -16.893035889
    249     20   1  0.410000    14.070520401   -32.949741364   -18.009140015
    250     20   2 -0.820000    14.363046646   -33.844993591   -17.821771622
    251     21   1  0.410000    18.596078873   -33.909690857   -16.893035889
    252     21   1  0.410000    18.070520401   -32.949741364   -18.009140015
    253     21   2 -0.820000    18.363046646   -33.844993591   -17.821771622
    254     22   1  0.410000   -17.403921127   -29.909690857   -16.893035889
    255     22   1  0.410000   -17.929479599   -28.949741364   -18.009140015
    256     22   2 -0.820000   -17.636953354   -29.844993591   -17.821771622
    257     23   1  0.410000   -13.403921127   -29.909690857   -16.893035889
    258     23   1  0.410000   -13.929479599   -28.949741364   -18.009140015
    259     23   2 -0.820000   -13.636953354   -29.844993591   -17.821771622
    260     24   1  0.410000    -9.403921127   -29.909690857   -16.893035889
    261     24   1  0.410000    -9.929479599   -28.949741364   -18.009140015
    262     24   2 -0.820000    -9.636953354   -29.844993591   -17.821771622
    263     25   1  0.410000    -5.403921127   -29.909690857   -16.893035889
    264     25   1  0.410000    -5.929479599   -28.949741364   -18.009140015
    265     25   2 -0.820000    -5.636953354   -29.844993591   -17.821771622
    266     26   1  0.410000    -1.403921127   -29.909690857   -16.893035889
    267     26   1  0.410000    -1.929479599   -28.949741364   -18.009140015
    268     26   2 -0.820000    -1.636953354   -29.844993591   -17.821771622
    269     27   1  0.410000     2.596078873   -29.909690857   -16.893035889
    270     27   1  0.410000     2.070520401   -28.949741364   -18.009140015
    271     27   2 -0.820000     2.363046646   -29.844993591   -17.821771622
    272     28   1  0.410000     6.596078873   -29.909690857   -16.893035889
    273     28   1  0.410000     6.070520401   -28.949741364   -18.009140015
    274     28   2 -0.820000     6.363046646   -29.844993591   -17.821771622
    275     29   1  0.410000    10.596078873   -29.909690857   -16.893035889
    276     29   1  0.410000    10.070520401   -28.949741364   -18.009140015
    277     29   2 -0.820000    10.363046646   -29.844993591   -17.821771622
    278     30   1  0.410000    14.596078873   -29.909690857   -16.893035889
    279     30   1  0.410000    14.070520401   -28.949741364   -18.009140015
    280     30   2 -0.820000    14.363046646   -29.844993591   -17.821771622
    281     31   1  0.410000    18.596078873   -29.909690857   -16.893035889
    282     31   1  0.410000    18.070520401   -28.949741364   -18.009140015
    283     31   2 -0.820000    18.363046646   -29.844993591   -17.821771622
    284     32   1  0.410000   -17.403921127   -25.909690857   -16.893035889
    285     32   1  0.410000   -17.929479599   -24.949741364   -18.009140015
    286     32   2 -0.820000   -17.636953354   -25.844993591   -17.821771622
    287     33   1  0.410000   -13.403921127   -25.909690857   -16.893035889
    288     33   1  0.410000   -13.929479599   -24.949741364   -18.009140015
    289     33   2 -0.820000   -13.636953354   -25.844993591   -17.821771622
    290     34   1  0.410000    -9.403921127   -25.909690857   -16.893035889
    291     34   1  0.410000    -9.929479599   -24.949741364   -18.009140015
    292     34   2 -0.820000    -9.636953354   -25.844993591   -17.821771622
    293     35   1  0.410000    -5.403921127   -25.909690857   -16.893035889
    294     35   1  0.410000    -5.929479599   -24.949741364   -18.009140015
    295     35   2 -0.820000    -5.636953354   -25.844993591   -17.821771622
    296     36   1  0.410000    -1.403921127   -25.909690857   -16.893035889
    297     36   1  0.410000    -1.929479599   -24.949741364   -18.009140015
    298     36   2 -0.820000    -1.636953354   -25.844993591   -17.821771622
    299     37   1  0.410000     2.596078873   -25.909690857   -16.893035889
    300     37   1  0.410000     2.070520401   -24.949741364   -18.009140015
    301     37   2 -0.820000     2.363046646   -25.844993591   -17.821771622
    302     38   1  0.410000     6.596078873   -25.909690857   -16.893035889
    303     38   1  0.410000     6.070520401   -24.949741364   -18.009140015
    304     38   2 -0.820000     6.363046646   -25.844993591   -17.821771622
    305     39   1  0.410000    10.596078873   -25.909690857   -16.893035889
    306     39   1  0.410000    10.070520401   -24.949741364   -18.009140015
    307     39   2 -0.820000    10.363046646   -25.844993591   -17.821771622
    308     40   1  0.410000    14.596078873   -25.909690857   -16.893035889
    309     40   1  0.410000    14.070520401   -24.949741364   -18.009140015
    310     40   2 -0.820000    14.363046646   -25.844993591   -17.821771622
    311     41   1  0.410000    18.596078873   -25.909690857   -16.893035889
    312     41   1  0.410000    18.070520401   -24.949741364   -18.009140015
    313     41   2 -0.820000    18.363046646   -25.844993591   -17.821771622
    314     42   1  0.410000   -17.403921127   -21.909690857   -16.893035889
    315     42   1  0.410000   -17.929479599   -20.949741364   -18.009140015
    316     42   2 -0.820000   -17.636953354   -21.844993591   -17.821771622
    317     43   1  0.410000   -13.403921127   -21.909690857   -16.893035889
    318     43   1  0.410000   -13.929479599   -20.949741364   -18.009140015
    319     43   2 -0.820000   -13.636953354   -21.844993591   -17.821771622
    320     44   1  0.410000    -9.403921127   -21.909690857   -16.893035889
    321     44   1  0.410000    -9.929479599   -20.949741364   -18.009140015
    322     44   2 -0.820000    -9.636953354   -21.844993591   -17.821771622
    323     45   1  0.410000    -5.403921127   -21.909690857   -16.893035889
    324     45   1  0.410000    -5.929479599   -20.949741364   -18.009140015
    325     45   2 -0.820000    -5.636953354   -21.844993591   -17.821771622
    326     46   1  0.410000    -1.403921127   -21.909690857   -16.893035889
    327     46   1  0.410000    -1.929479599   -20.949741364   -18.009140015
    328     46   2 -0.820000    -1.636953354   -21.844993591   -17.821771622
    329     47   1  0.410000     2.596078873   -21.909690857   -16.893035889
    330     47   1  0.410000     2.070520401   -20.949741364   -18.009140015
    331     47   2 -0.820000     2.363046646   -21.844993591   -17.821771622
    332     48   1  0.410000     6.596078873   -21.909690857   -16.893035889
    333     48   1  0.410000     6.070520401   -20.949741364   -18.009140015
    334     48   2 -0.820000     6.363046646   -21.844993591   -17.821771622
    335     49   1  0.410000    10.596078873   -21.909690857   -16.893035889
    336     49   1  0.410000    10.070520401   -20.949741364   -18.009140015
    337     49   2 -0.820000    10.363046646   -21.844993591   -17.821771622
    338     50   1  0.410000    14.596078873   -21.909690857   -16.893035889
    339     50   1  0.410000    14.070520401   -20.949741364   -18.009140015
    340     50   2 -0.820000    14.363046646   -21.844993591   -17.821771622
    341     51   1  0.410000    18.596078873   -21.909690857   -16.893035889
    342     51   1  0.410000    18.070520401   -20.949741364   -18.009140015
    343     51   2 -0.820000    18.363046646   -21.844993591   -17.821771622
    344     52   1  0.410000   -17.403921127   -17.909690857   -16.893035889
    345     52   1  0.410000   -17.929479599   -16.949741364   -18.009140015
    346     52   2 -0.820000   -17.636953354   -17.844993591   -17.821771622
    347     53   1  0.410000   -13.403921127   -17.909690857   -16.893035889
    348     53   1  0.410000   -13.929479599   -16.949741364   -18.009140015
    349     53   2 -0.820000   -13.636953354   -17.844993591   -17.821771622
    350     54   1  0.410000    -9.403921127   -17.909690857   -16.893035889
    351     54   1  0.410000    -9.929479599   -16.949741364   -18.009140015
    352     54   2 -0.820000    -9.636953354   -17.844993591   -17.821771622
    353     55   1  0.410000    -5.403921127   -17.909690857   -16.893035889
    354     55   1  0.410000    -5.929479599   -16.949741364   -18.009140015
    355     55   2 -0.820000    -5.636953354   -17.844993591   -17.821771622
    356     56   1  0.410000    -1.403921127   -17.909690857   -16.893035889
    357     56   1  0.410000    -1.929479599   -16.949741364   -18.009140015
    358     56   2 -0.820000    -1.636953354   -17.844993591   -17.821771622
    359     57   1  0.410000     2.596078873   -17.909690857   -16.893035889