LAMMPS 2005 Description - Generated by XenoView

        6193  atoms
        4192  bonds
        2335  angles
         282  dihedrals

           3  atom types
           2  bond types
           3  angle types
           1  dihedral types
           1  improper types

  -20.0000000000   20.0000000000 xlo xhi
  -40.0000000000   40.0000000000 ylo yhi
  -20.0000000000   20.0000000000 zlo zhi

Masses

  1   1.007970  h   
  2  15.999400  o   
  3  12.011150  c   

Pair Coeffs

  1   0.0200000000   2.9950000000
  2   0.2400000000   3.5350000000
  3   0.0540000000   4.0100000000

Bond Coeffs

  1      0.9600    493.8480      0.0000      0.0000
  2      1.1010    345.0000   -691.8900    844.6000

Angle Coeffs

  1    109.0000     58.5000      0.0000      0.0000
  2      0.0000      0.0000      0.0000      0.0000
  3    107.6600     39.6410    -12.9210     -2.4318

Dihedral Coeffs

  1     0.0000     0.0000     0.0000     0.0000     0.0000     0.0000

Improper Coeffs

  1      0.0000      0.0000

BondBond Coeffs

  1      0.0000      0.9600      0.9600
  2      0.0000      1.1010      1.1010
  3      5.3316      1.1010      1.1010

BondAngle Coeffs

  1      0.0000      0.0000      0.9600      0.9600
  2      0.0000      0.0000      1.1010      1.1010
  3     18.1030     18.1030      1.1010      1.1010

AngleAngle Coeffs

  1     -0.3157     -0.3157     -0.3157    107.6600    107.6600    107.6600

AngleAngleTorsion Coeffs

  1      0.0000      0.0000    107.6600

EndBondTorsion Coeffs

  1      0.0000      0.0000      0.0000      0.0000      0.0000      0.0000      1.1010      1.1010

MiddleBondTorsion Coeffs

  1      0.0000      0.0000      0.0000      1.1010

BondBond13 Coeffs

  1      0.0000      1.1010      1.1010

AngleTorsion Coeffs

  1      0.0000      0.0000      0.0000      0.0000      0.0000      0.0000      0.0000    107.6600

Atoms

      1      1   1  0.410000   -17.503940582   -37.933845520   -16.806961060
      2      1   1  0.410000   -17.916082382   -36.996074677   -17.974927902
      3      1   2 -0.820000   -17.595266342   -37.880138397   -17.764770508
      4      2   1  0.000000    -1.573164821    -8.769362450    -1.223232746
      5      2   1  0.000000    -1.843826532   -10.251340866    -0.206617340
      6      2   1  0.000000    -3.199754715    -9.077001572    -0.512651324
      7      2   1  0.000000    -1.837720633    -8.625206947     0.563123703
      8      2   3  0.000000    -2.111697674    -9.192284584    -0.352128565
      9      2   1  0.000000    -0.671485364   -11.228139877     0.752531528
     10      2   1  0.000000    -1.302923441   -11.867752075    -0.785046041
     11      2   3  0.000000    -1.563469052   -11.278259277     0.108622737
     12      2   1  0.000000    -1.542995572    -5.364592552     2.064043760
     13      2   1  0.000000    -1.797048807    -7.010179996     1.394252896
     14      2   1  0.000000    -0.878757954    -5.757833004     0.405641556
     15      2   1  0.000000    -2.655045748    -5.609317303     0.684510589
     16      2   3  0.000000    -1.699639320    -5.932896614     1.127166510
     17      2   1  0.000000    -0.806364357    -8.413778305     2.006130457
     18      2   1  0.000000    -2.594431877    -8.450960159     2.195638657
     19      2   3  0.000000    -1.763082266    -8.126520157     1.543115497
     20      2   1  0.000000     1.854487896    -3.571470976     0.207868159
     21      2   1  0.000000     0.391876340    -4.576565742    -0.138358653
     22      2   1  0.000000     0.654977739    -2.977532148    -0.993876636
     23      2   1  0.000000     0.239870206    -2.969603062     0.730415642
     24      2   3  0.000000     0.789240420    -3.522243977    -0.057338305
     25      2   1  0.000000     0.819109261    -6.301506042     0.170034260
     26      2   1  0.000000    -0.150254637    -5.884232044    -1.252365232
     27      2   3  0.000000     0.045873564    -5.614160061    -0.200066581
     28      2   1  0.000000     0.481765181     0.113841608     2.232906342
     29      2   1  0.000000    -0.191497162    -1.323182106     1.394932747
     30      2   1  0.000000    -1.094590545     0.254738092     1.407873988
     31      2   3  0.000000    -0.103275247    -0.208130091     1.366657138
     32      2   1  0.000000    -0.047009751    -2.774237394     2.480091095
     33      2   1  0.000000    -1.418112397    -2.630995274     1.318128109
     34      2   3  0.000000    -0.346620262    -2.407335281     1.479074478
     35      2   1  0.000000     1.643398404     3.094776869    -0.923486888
     36      2   1  0.000000     0.771215081     1.553776145    -0.585678160
     37      2   1  0.000000    -0.016648889     2.852274179    -1.534971476
     38      2   1  0.000000     0.273857057     3.084712744     0.223111346
     39      2   3  0.000000     0.665884554     2.642004728    -0.699999452
     40      2   1  0.000000     1.914380550     0.156212613    -0.550143123
     41      2   1  0.000000     0.334120989    -0.008745008    -1.368239880
     42      2   1  0.000000     0.416970700     0.073111176     0.434930861
     43      2   3  0.000000     0.854558647     0.438873112    -0.509741068
     44      2   1  0.000000     1.595880151     5.552980900     1.882491589
     45      2   1  0.000000     0.215415999     4.553270340     1.294215918
     46      2   1  0.000000     0.475191176     6.216046810     0.665918827
     47      2   1  0.000000    -0.077800296     5.974044323     2.369494438
     48      2   3  0.000000     0.550152540     5.584066868     1.555094242
     49      2   1  0.000000     0.293656081     2.884672880     2.015938520
     50      2   1  0.000000    -1.219657779     3.416600704     1.185628176
     51      2   3  0.000000    -0.112066850     3.489865541     1.180582166
     52      2   1  0.000000    -0.338801593     9.408233643    -0.690867245
     53      2   1  0.000000     0.120851457     7.838247776    -0.012800320
     54      2   1  0.000000    -1.276080012     8.729535103     0.685249567
     55      2   1  0.000000     0.415034384     9.322086334     0.961350143
     56      2   3  0.000000    -0.267886341     8.818758011     0.238917500
     57      2   1  0.000000    -0.242832199     6.369875431    -0.990781784
     58      2   1  0.000000     1.448061347     6.875526428    -0.725373983
     59      2   3  0.000000     0.447393954     6.822502136    -0.267738163
     60      2   1  0.000000     1.891894341    12.416716576     1.329922915
     61      2   1  0.000000     0.931421101    10.939277649     1.686469436
     62      2   1  0.000000     0.155834720    12.363652229     0.902947724
     63      2   1  0.000000     0.664613426    12.476725578     2.623179197
     64      2   3  0.000000     0.898142278    12.034608841     1.632866502
     65      2   1  0.000000     2.112079620     9.593703270     1.491258502
     66      2   1  0.000000     0.821715951     9.470306396     2.730883598
     67      2   3  0.000000     1.062721729     9.820487976     1.716858506
     68      2   1  0.000000    -0.178684697    15.282230377    -0.822533548
     69      2   1  0.000000    -0.653547168    13.782487869     0.054994002
     70      2   1  0.000000    -1.788156867    15.197107315    -0.053671446
     71      2   1  0.000000    -0.334527761    15.317178726     0.959968984
     72      2   3  0.000000    -0.730916262    14.917442322     0.051512584
     73      2   1  0.000000    -0.248940870    12.279698372    -0.874875963
     74      2   1  0.000000    -1.576348066    12.263808250     0.349762201
     75      2   3  0.000000    -0.584141731    12.683765411     0.100145712
     76      2   1  0.000000    -0.131929800    18.323722839     2.840880394
     77      2   1  0.000000    -0.437294960    16.735647202     2.105012655
     78      2   1  0.000000    -1.154896021    18.205757141     1.321908355
     79      2   1  0.000000    -1.776427746    17.634271622     2.908341646
     80      2   3  0.000000    -0.883156955    17.744375229     2.300405979
     81      2   1  0.000000     1.127584696    15.905771255     1.821543932
     82      2   1  0.000000    -0.195230231    15.120423317     2.770628691
     83      2   3  0.000000     0.039055828    15.780740738     1.920829773
     84      2   1  0.000000     0.057859458    21.052328110     1.486174583
     85      2   1  0.000000    -1.087329984    19.910511017     0.666572750
     86      2   1  0.000000    -0.792485535    21.544010162    -0.001639825
     87      2   1  0.000000    -1.703468680    21.379978180     1.539897919
     88      2   3  0.000000    -0.878646195    20.964590073     0.922563016
     89      2   1  0.000000    -0.810512066    18.501163483    -0.422256947
     90      2   1  0.000000    -2.451010466    18.812610626     0.256691039
     91      2   3  0.000000    -1.371695399    18.845300674     0.465303749
     92      2   1  0.000000    -3.417624474    24.317070007     2.645924807
     93      2   1  0.000000    -2.868252993    22.735383987     1.922595501
     94      2   1  0.000000    -4.026239395    23.849893570     1.025989652
     95      2   3  0.000000    -3.165381908    23.792982101     1.711304903
     96      2   1  0.000000    -2.385714293    21.559127808     3.243339539
     97      2   1  0.000000    -3.413642406    20.995182037     1.907962322
     98      2   3  0.000000    -2.585018396    21.681800842     2.158117056
     99      2   1  0.000000    -1.352027178    27.370744705    -0.203653201
    100      2   1  0.000000    -1.549988747    25.972253799     0.836527228
    101      2   1  0.000000    -2.877659082    27.182594299     0.755302548
    102      2   1  0.000000    -1.350128531    27.621000290     1.575068593
    103      2   3  0.000000    -1.789074659    27.029260635     0.733594179
    104      2   1  0.000000    -0.492692441    24.542766571     1.354689717
    105      2   1  0.000000    -1.350299120    24.510555267    -0.229798004
    106      2   1  0.000000    -2.311434031    24.341838837     1.260434985
    107      2   3  0.000000    -1.411318660    24.856445313     0.814765811
    108      2   1  0.000000     0.450676769    30.415405273     2.868013144
    109      2   1  0.000000    -0.801121175    29.122426987     2.447625875
    110      2   1  0.000000    -0.815758348    30.740606308     1.649230957
    111      2   1  0.000000    -1.246067166    30.662057877     3.284729242
    112      2   3  0.000000    -0.571372390    30.224040985     2.564019680
    113      2   1  0.000000     0.087626219    27.568838120     2.677767992
    114      2   1  0.000000    -1.545371771    27.796607971     3.378005266
    115      2   3  0.000000    -0.900682986    28.028497696     2.500862837
    116      2   1  0.000000    -1.814738274    33.753501892    -0.097695969
    117      2   1  0.000000    -1.346687675    32.301620483     0.877136052
    118      2   1  0.000000    -3.014306545    32.992137909     1.083951473
    119      2   1  0.000000    -1.618128777    33.818771362     1.656644344
    120      2   3  0.000000    -1.943056345    33.203163147     0.870417833
    121      2   1  0.000000    -0.167614415    31.173137665     0.067231022
    122      2   1  0.000000    -1.907849550    30.757463455     0.218401507
    123      2   3  0.000000    -1.064438462    31.228416443     0.710451066
    124      2   1  0.000000     0.220992059    36.373088837     1.438096166
    125      2   1  0.000000    -0.989847004    35.325820923     2.154100180
    126      2   1  0.000000    -1.428214788    36.967174530     1.584891081
    127      2   1  0.000000    -0.406994134    36.741374969     3.053645611
    128      2   3  0.000000    -0.645443320    36.371208191     2.050328970
    129      2   1  0.000000    -2.085890770    34.428211212     3.300173283
    130      2   1  0.000000    -0.392135292    33.858268738     2.977643490
    131      2   3  0.000000    -1.283995032    34.353237152     2.568900108
    132      2   1  0.000000    -5.533135414   -31.088785172    -1.364581227
    133      2   1  0.000000    -6.516247272   -31.676052094     0.012067566
    134      2   1  0.000000    -6.660386086   -29.968393326    -0.551489472
    135      2   1  0.000000    -5.163163185   -30.469787598     0.303441942
    136      2   3  0.000000    -5.964180946   -30.801900864    -0.391444951
    137      2   1  0.000000    -6.089154243   -33.405345917     0.362216711
    138      2   1  0.000000    -7.679528713   -33.029411316    -0.355323553
    139      2   1  0.000000    -7.336090088   -32.585609436     1.343001246
    140      2   3  0.000000    -6.906280994   -32.671787262     0.337927461
    141      2   1  0.000000    -2.901284695   -27.792716980     0.786405802
    142      2   1  0.000000    -4.113370895   -29.100080490     0.913232327
    143      2   1  0.000000    -4.501622200   -27.603229523    -0.060827225
    144      2   1  0.000000    -4.353773117   -27.498826981     1.753078341
    145      2   3  0.000000    -3.982883215   -27.991291046     0.840771616
    146      2   1  0.000000    -3.422309399   -30.735033035     0.555064559
    147      2   1  0.000000    -4.472578526   -30.478534698     1.980822802
    148      2   3  0.000000    -4.305634499   -30.193731308     0.927105188
    149      2   1  0.000000    -4.728163719   -24.499183655    -1.563766479
    150      2   1  0.000000    -5.148795605   -26.056423187    -0.760104537
    151      2   1  0.000000    -6.247743607   -24.618312836    -0.619687080
    152      2   1  0.000000    -4.623368740   -24.606599808     0.231121168
    153      2   3  0.000000    -5.190406799   -24.950849533    -0.664922416
    154      2   1  0.000000    -4.727252960   -27.434347153    -1.842077971
    155      2   1  0.000000    -6.177196503   -27.504163742    -0.774172902
    156      2   3  0.000000    -5.138091564   -27.160125732    -0.863045335
    157      2   1  0.000000    -3.936908484   -21.706310272     2.269656420
    158      2   1  0.000000    -4.320663452   -23.129299164     1.260451198
    159      2   1  0.000000    -5.626255512   -22.249204636     2.068610430
    160      2   3  0.000000    -4.663022041   -22.126121521     1.557137609
    161      2   1  0.000000    -2.938390255   -24.044649124     0.548106968
    162      2   1  0.000000    -3.915947199   -24.782175064     1.870923877
    163      2   3  0.000000    -3.948489189   -24.136047363     0.981685162
    164      2   1  0.000000    -3.706900120   -18.499776840    -1.258596778
    165      2   1  0.000000    -4.304854393   -19.923622131    -0.273076564
    166      2   1  0.000000    -4.493885040   -18.232149124     0.293739110
    167      2   1  0.000000    -2.864678144   -18.933582306     0.260521978
    168      2   3  0.000000    -3.833699465   -18.915355682    -0.250191152
    169      2   1  0.000000    -4.539598465   -21.538667679    -1.114942551
    170      2   1  0.000000    -5.944326401   -20.652238846    -0.514904082
    171      2   1  0.000000    -4.804130554   -21.485218048     0.666101396
    172      2   3  0.000000    -4.878389835   -20.876737595    -0.291989625
    173      2   1  0.000000     0.413555712   -17.711732864     0.698011637
    174      2   1  0.000000    -1.319373012   -18.179164886     0.852604091
    175      2   1  0.000000    -0.833705485   -16.680124283    -0.070393875
    176      2   1  0.000000    -0.683622539   -16.706499100     1.736434579
    177      2   3  0.000000    -0.608459890   -17.317951202     0.811083853
    178      2   1  0.000000    -1.430206180   -19.984537125     0.498685032
    179      2   1  0.000000    -2.243192911   -19.327796936     1.944972992
    180      2   3  0.000000    -1.958772779   -19.097496033     0.901614130
    181      2   1  0.000000    -2.876026869   -14.136040688    -1.570133448
    182      2   1  0.000000    -2.004419088   -15.540349960    -0.865624368
    183      2   1  0.000000    -3.691033125   -15.726092339    -1.343284726
    184      2   1  0.000000    -3.293494940   -14.687278748     0.090623736
    185      2   3  0.000000    -2.971662045   -15.016411781    -0.918463588
    186      2   1  0.000000    -0.851176560   -16.572546005    -1.825739264
    187      2   1  0.000000    -0.274855852   -15.165008545    -0.878817320
    188      2   3  0.000000    -1.001306772   -15.991863251    -0.906841636
    189      2   1  0.000000    -4.193687916   -11.810157776     0.754484177
    190      2   1  0.000000    -3.271420479   -13.275482178     1.195069909
    191      2   1  0.000000    -3.241552353   -11.842757225     2.277745485
    192      2   1  0.000000    -2.398102999   -11.754817963     0.674867690
    193      2   3  0.000000    -3.267930508   -12.167315483     1.227087140
    194      2   1  0.000000    -2.828890085   -14.912650108     1.811833024
    195      2   1  0.000000    -4.529247284   -14.580059052     1.409680843
    196      2   3  0.000000    -3.486790895   -14.357057571     1.132779241
    197      3   1  0.410000   -13.545483589   -37.931522369   -16.718988419
    198      3   1  0.410000   -13.817396164   -37.010444641   -17.943510056
    199      3   2 -0.820000   -13.562012672   -37.902565002   -17.682428360
    200      4   1  0.410000    -9.543862343   -37.967155457   -16.745447159
    201      4   1  0.410000    -9.902482033   -36.963546753   -17.882286072
    202      4   2 -0.820000    -9.468918800   -37.803791046   -17.692937851
    203      5   1  0.410000    -5.383259773   -37.911823273   -16.732427597
    204      5   1  0.410000    -6.343090057   -37.150218964   -17.697092056
    205      5   2 -0.820000    -5.531492710   -37.668727875   -17.652738571
    206      6   1  0.410000    -1.493939042   -38.097274780   -16.687225342
    207      6   1  0.410000    -2.156258106   -37.290893555   -17.833660126
    208      6   2 -0.820000    -1.580641508   -38.038639069   -17.645090103
    209      7   1  0.410000     2.232778072   -38.230129242   -16.977365494
    210      7   1  0.410000     1.923801899   -37.168899536   -18.056854248
    211      7   2 -0.820000     2.226513386   -38.073192596   -17.928611755
    212      8   1  0.410000     6.315673351   -38.141311646   -16.754734039
    213      8   1  0.410000     5.672723293   -37.414482117   -17.963504791
    214      8   2 -0.820000     6.304547787   -38.097255707   -17.716676712
    215      9   1  0.410000    10.296740532   -38.172843933   -16.840293884
    216      9   1  0.410000     9.619054794   -37.364368439   -17.974653244
    217      9   2 -0.820000    10.278795242   -38.041591644   -17.794530869
    218     10   1  0.410000    14.327437401   -38.030845642   -16.760467529
    219     10   1  0.410000    13.701097488   -37.261604309   -17.948268890
    220     10   2 -0.820000    14.299362183   -37.979724884   -17.721513748
    221     11   1  0.410000    18.402027130   -37.953472137   -16.752397537
    222     11   1  0.410000    17.900917053   -37.120304108   -17.960088730
    223     11   2 -0.820000    18.345298767   -37.937767029   -17.714347839
    224     12   1  0.410000   -17.492879868   -33.981349945   -16.634843826
    225     12   1  0.410000   -17.898565292   -33.136592865   -17.885477066
    226     12   2 -0.820000   -17.612333298   -34.006938934   -17.590612411
    227     13   1  0.410000   -13.415611267   -34.055503845   -16.679544449
    228     13   1  0.410000   -14.176756859   -33.385425568   -17.861320496
    229     13   2 -0.820000   -13.538467407   -34.069248199   -17.636554718
    230     14   1  0.410000    -9.333484650   -34.087039948   -16.823217392
    231     14   1  0.410000   -10.258896828   -33.231704712   -17.729499817
    232     14   2 -0.820000    -9.663564682   -33.988140106   -17.723817825
    233     15   1  0.410000    -5.138302803   -33.784671783   -17.482641220
    234     15   1  0.410000    -5.913696766   -32.615276337   -18.160421371
    235     15   2 -0.820000    -5.519541740   -33.483509064   -18.311838150
    236     16   1  0.410000    -1.269934297   -33.894859314   -17.406282425
    237     16   1  0.410000    -2.196600199   -32.855754852   -18.115499496
    238     16   2 -0.820000    -1.706369758   -33.675750732   -18.236455917
    239     17   1  0.410000     2.864899158   -33.812656403   -17.551292419
    240     17   1  0.410000     2.002697706   -32.625080109   -18.082983017
    241     17   2 -0.820000     2.255841732   -33.540569305   -18.245998383
    242     18   1  0.410000     6.954301834   -33.759704590   -17.750080109
    243     18   1  0.410000     6.097148895   -32.508319855   -18.114545822
    244     18   2 -0.820000     6.191935539   -33.457729340   -18.256164551
    245     19   1  0.410000    10.878225327   -33.835384369   -17.668613434
    246     19   1  0.410000    10.142351151   -32.527507782   -18.091749191
    247     19   2 -0.820000    10.130484581   -33.489154816   -18.168518066
    248     20   1  0.410000    14.760999680   -33.914112091   -17.350103378
    249     20   1  0.410000    14.155527115   -32.648994446   -18.032506943
    250     20   2 -0.820000    14.098272324   -33.609870911   -17.979305267
    251     21   1  0.410000    18.605426788   -33.949287415   -16.908638000
    252     21   1  0.410000    18.164152145   -32.880336761   -17.957912445
    253     21   2 -0.820000    18.175985336   -33.823081970   -17.760890961
    254     22   1  0.410000   -17.379882813   -29.889808655   -17.039615631
    255     22   1  0.410000   -17.897590637   -28.715549469   -17.923522949
    256     22   2 -0.820000   -17.843072891   -29.676164627   -17.857212067
    257     23   1  0.410000   -13.261526108   -29.615653992   -17.132993698
    258     23   1  0.410000   -13.900980949   -28.442798615   -17.931364059
    259     23   2 -0.820000   -13.803975105   -29.402750015   -17.899768829
    260     24   1  0.410000    -9.182065964   -29.612957001   -17.052865982
    261     24   1  0.410000    -9.887000084   -28.459875107   -17.831224442
    262     24   2 -0.820000    -9.777195930   -29.417985916   -17.786144257
    263     25   1  0.410000    -5.556302547   -30.205684662   -16.536182404
    264     25   1  0.410000    -5.922280312   -29.364681244   -17.786422729
    265     25   2 -0.820000    -5.934126377   -30.255794525   -17.421932220
    266     26   1  0.410000    -0.671915829   -29.721166611   -18.091585159
    267     26   1  0.410000    -1.856383324   -28.701923370   -18.120130539
    268     26   2 -0.820000    -1.525255919   -29.528137207   -18.494504929
    269     27   1  0.410000     3.008585215   -29.964887619   -17.291240692
    270     27   1  0.410000     2.164460182   -28.807228088   -17.892898560
    271     27   2 -0.820000     2.243347645   -29.767618179   -17.843957901
    272     28   1  0.410000     6.641655922   -29.939655304   -16.747705460
    273     28   1  0.410000     6.263091564   -28.877868652   -17.820611954
    274     28   2 -0.820000     6.243309975   -29.820487976   -17.618946075
    275     29   1  0.410000    10.673776627   -29.938383102   -16.756456375
    276     29   1  0.410000    10.192466736   -28.939485550   -17.850458145
    277     29   2 -0.820000    10.351260185   -29.871341705   -17.662752151
    278     30   1  0.410000    14.682699203   -29.949466705   -16.831209183
    279     30   1  0.410000    14.125299454   -28.938562393   -17.876367569
    280     30   2 -0.820000    14.343943596   -29.865373611   -17.729808807
    281     31   1  0.410000    18.665416718   -29.948207855   -16.955072403
    282     31   1  0.410000    18.077859879   -28.857431412   -17.897813797
    283     31   2 -0.820000    18.255359650   -29.800924301   -17.814838409
    284     32   1  0.410000   -17.179075241   -25.938970566   -16.935001373
    285     32   1  0.410000   -17.890522003   -24.930112839   -17.884181976
    286     32   2 -0.820000   -17.707208633   -25.865127563   -17.737174988
    287     33   1  0.410000   -13.396661758   -25.995790482   -16.419597626
    288     33   1  0.410000   -13.786258698   -25.142520905   -17.665903091
    289     33   2 -0.820000   -13.763646126   -26.037460327   -17.309808731
    290     34   1  0.410000    -9.383504868   -25.862989426   -16.544336319
    291     34   1  0.410000    -9.815175056   -25.023342133   -17.788602829
    292     34   2 -0.820000    -9.626806259   -25.915676117   -17.474885941
    293     35   1  0.410000    -5.038437366   -26.032682419   -17.028438568
    294     35   1  0.410000    -6.236263752   -25.379709244   -17.783832550
    295     35   2 -0.820000    -5.597509861   -26.098217010   -17.810033798
    296     36   1  0.410000    -1.557165980   -26.063323975   -16.408884048
    297     36   1  0.410000    -1.875000596   -25.071022034   -17.560514450
    298     36   2 -0.820000    -1.716128469   -25.997768402   -17.357995987
    299     37   1  0.410000     2.642629385   -26.060861588   -16.515810013
    300     37   1  0.410000     2.059135437   -25.226875305   -17.689609528
    301     37   2 -0.820000     2.515538454   -26.045377731   -17.472507477
    302     38   1  0.410000     6.595170975   -26.045818329   -16.608823776
    303     38   1  0.410000     5.821369171   -25.348361969   -17.765941620
    304     38   2 -0.820000     6.463828564   -26.036088943   -17.565111160
    305     39   1  0.410000    10.619640350   -25.993396759   -16.754137039
    306     39   1  0.410000     9.900504112   -25.143178940   -17.840280533
    307     39   2 -0.820000    10.414740562   -25.943857193   -17.695833206
    308     40   1  0.410000    14.657882690   -25.954622269   -16.920398712
    309     40   1  0.410000    13.980977058   -24.979965210   -17.926774979
    310     40   2 -0.820000    14.352465630   -25.863300323   -17.830373764
    311     41   1  0.410000    18.754184723   -25.918289185   -17.054096222
    312     41   1  0.410000    18.036918640   -24.906309128   -17.994892120
    313     41   2 -0.820000    18.306924820   -25.826702118   -17.902238846
    314     42   1  0.410000   -17.421192169   -21.997402191   -16.568336487
    315     42   1  0.410000   -17.775871277   -21.085355759   -17.782669067
    316     42   2 -0.820000   -17.645338058   -21.998243332   -17.506011963
    317     43   1  0.410000   -13.407526016   -22.140771866   -16.587648392
    318     43   1  0.410000   -13.916980743   -21.177894592   -17.687454224
    319     43   2 -0.820000   -13.525380135   -22.042623520   -17.538953781
    320     44   1  0.410000    -9.476128578   -22.269157410   -16.736801147
    321     44   1  0.410000   -10.151989937   -21.403162003   -17.830358505
    322     44   2 -0.820000    -9.657112122   -22.214778900   -17.681791306
    323     45   1  0.410000    -4.743885994   -21.377336502   -17.638740540
    324     45   1  0.410000    -6.028172493   -20.514295578   -17.844495773
    325     45   2 -0.820000    -5.547860146   -21.287847519   -18.161788940
    326     46   1  0.410000    -1.172261715   -21.947967529   -17.399141312
    327     46   1  0.410000    -1.947137475   -20.748485565   -18.023960114
    328     46   2 -0.820000    -1.937184572   -21.706993103   -17.933349609
    329     47   1  0.410000     2.431399345   -21.857357025   -16.915180206
    330     47   1  0.410000     2.264914036   -20.590541840   -17.799333572
    331     47   2 -0.820000     2.193133354   -21.552179337   -17.798946381
    332     48   1  0.410000     6.646635532   -21.856380463   -17.172254562
    333     48   1  0.410000     6.172270298   -20.585605621   -17.939525604
    334     48   2 -0.820000     6.313295841   -21.536939621   -18.016986847
    335     49   1  0.410000    10.680725098   -21.903106689   -17.052202225
    336     49   1  0.410000    10.158605576   -20.740566254   -17.948789597
    337     49   2 -0.820000    10.261613846   -21.697765350   -17.894313812
    338     50   1  0.410000    14.663273811   -21.924240112   -16.919759750
    339     50   1  0.410000    14.177715302   -20.844566345   -17.932050705
    340     50   2 -0.820000    14.261548042   -21.793632507   -17.785333633
    341     51   1  0.410000    18.619945526   -21.947114944   -16.758249283
    342     51   1  0.410000    18.200490952   -20.946065903   -17.874998093
    343     51   2 -0.820000    18.297199249   -21.881221771   -17.663864136
    344     52   1  0.410000   -17.569396973   -18.001960754   -16.617134094
    345     52   1  0.410000   -18.062030792   -17.288520813   -17.907396317
    346     52   2 -0.820000   -17.413965225   -17.912145615   -17.564411163
    347     53   1  0.410000   -13.557500839   -17.945419312   -16.802198410
    348     53   1  0.410000   -14.195753098   -17.166770935   -17.986356735
    349     53   2 -0.820000   -13.421348572   -17.672391891   -17.716800690
    350     54   1  0.410000    -9.497149467   -17.820859909   -16.869073868
    351     54   1  0.410000   -10.391371727   -16.942850113   -17.791997910
    352     54   2 -0.820000    -9.570491791   -17.447738647   -17.754583359
    353     55   1  0.410000    -4.938684940   -17.548871994   -17.330133438
    354     55   1  0.410000    -6.435848236   -17.242204666   -17.665260315
    355     55   2 -0.820000    -5.674270630   -17.780641556   -17.910228729
    356     56   1  0.410000    -1.224033594   -17.707933426   -16.571830750
    357     56   1  0.410000    -1.758103967   -16.498315811   -17.392335892
    358     56   2 -0.820000    -1.766254067   -17.461015701   -17.330863953
    359     57   1  0.410000     2.705887318   -17.993089676   -16.629562378