ITEM: TIMESTEP
0
ITEM: NUMBER OF ATOMS
3567
ITEM: BOX BOUNDS pp pp pp
-30 30
-30 30
-30 30
ITEM: ATOMS id mol type x y z ix iy iz 
1 1 1 13.3599 0.0534251 -6.62496 0 0 0 
2 1 1 13.9974 1.65708 -7.1462 0 0 0 
3 1 1 13.5494 1.36814 -5.42394 0 0 0 
4 1 1 12.2548 1.4778 -6.67344 0 0 0 
5 1 2 13.2897 1.14051 -6.46884 0 0 0 
6 1 1 10.9331 2.60197 -6.18112 0 0 0 
7 1 1 11.1615 2.19883 -7.91181 0 0 0 
8 1 1 10.5223 0.951716 -6.77756 0 0 0 
9 1 2 11.2185 1.80609 -6.88544 0 0 0 
10 1 1 8.82238 0.431518 -6.47741 0 0 0 
11 1 1 9.85719 -0.511747 -7.59377 0 0 0 
12 1 1 10.1839 -0.551426 -5.82088 0 0 0 
13 1 2 9.84799 0.0804841 -6.66624 0 0 0 
14 1 1 9.74284 -1.88001 -4.68515 0 0 0 
15 1 1 11.4231 -1.75065 -5.29315 0 0 0 
16 1 1 10.8016 -0.536864 -4.11505 0 0 0 
17 1 2 10.5378 -1.17784 -4.97856 0 0 0 
18 1 1 11.1817 -0.515239 -2.35291 0 0 0 
19 1 1 11.9593 0.671986 -3.44582 0 0 0 
20 1 1 10.2018 0.817326 -3.0702 0 0 0 
21 1 2 11.0351 0.10958 -3.2467 0 0 0 
22 1 1 9.4073 2.34743 -3.59555 0 0 0 
23 1 1 9.33399 1.85185 -1.87575 0 0 0 
24 1 1 8.39234 0.93682 -3.1119 0 0 0 
25 1 2 9.33348 1.48673 -2.91385 0 0 0 
26 1 1 7.65758 -0.709483 -3.07429 0 0 0 
27 1 1 7.23183 0.424749 -4.39287 0 0 0 
28 1 1 6.63187 0.729451 -2.72013 0 0 0 
29 1 2 7.47839 0.347624 -3.32319 0 0 0 
30 1 1 4.8462 0.977153 -2.71443 0 0 0 
31 1 1 5.90963 2.14354 -1.86767 0 0 0 
32 1 1 5.68141 0.487267 -1.19363 0 0 0 
33 1 2 5.76863 1.08262 -2.12347 0 0 0 
34 1 1 5.89325 -1.14621 -0.462795 0 0 0 
35 1 1 6.24514 0.315534 0.510346 0 0 0 
36 1 1 4.53957 -0.0936017 0.0922737 0 0 0 
37 1 2 5.58793 -0.107826 -0.264203 0 0 0 
38 1 1 2.90283 -0.81135 -0.146184 0 0 0 
39 1 1 3.0622 0.925055 0.263219 0 0 0 
40 1 1 3.42858 -0.325881 1.50865 0 0 0 
41 1 2 3.48517 -0.0770081 0.430815 0 0 0 
42 1 1 4.16789 -1.26204 2.86046 0 0 0 
43 1 1 3.43923 0.341742 3.18388 0 0 0 
44 1 1 2.37702 -1.06163 2.79265 0 0 0 
45 1 2 3.35141 -0.577423 2.58482 0 0 0 
46 1 1 1.52903 -2.63654 3.02029 0 0 0 
47 1 1 0.701535 -1.2952 2.16967 0 0 0 
48 1 1 0.982373 -1.19005 3.94689 0 0 0 
49 1 2 1.39877 -1.54442 2.98389 0 0 0 
50 1 1 0.879533 -1.50672 5.7189 0 0 0 
51 1 1 0.942636 0.179583 5.11828 0 0 0 
52 1 1 -0.541156 -0.808484 4.85531 0 0 0 
53 1 2 0.564656 -0.832353 4.90815 0 0 0 
54 1 1 -2.01996 -1.7593 4.45994 0 0 0 
55 1 1 -1.97302 -0.00280249 4.11183 0 0 0 
56 1 1 -2.05926 -0.576016 5.81954 0 0 0 
57 1 2 -1.64759 -0.785838 4.81317 0 0 0 
58 1 1 -1.84724 0.393654 7.32445 0 0 0 
59 1 1 -3.49151 -0.0812339 6.79629 0 0 0 
60 1 1 -2.36172 -1.32995 7.44005 0 0 0 
61 1 2 -2.43944 -0.399831 6.84432 0 0 0 
62 1 1 -1.25008 -2.40082 8.37238 0 0 0 
63 1 2 -2.28576 -2.26722 8.02486 0 0 0 
64 1 1 25.4252 2.6262 -20.6313 0 0 0 
65 1 1 25.1632 0.870962 -20.3783 0 0 0 
66 1 1 26.8169 1.49793 -20.6738 0 0 0 
67 1 1 25.9927 1.84563 -19.1073 0 0 0 
68 1 2 25.8498 1.71016 -20.196 0 0 0 
69 1 1 27.205 1.86731 -17.7737 0 0 0 
70 1 1 25.5511 1.25525 -17.4625 0 0 0 
71 1 1 25.8161 3.01801 -17.7351 0 0 0 
72 1 2 26.1405 1.99822 -18.0207 0 0 0 
73 1 1 25.2471 4.08826 -16.4009 0 0 0 
74 1 1 26.3723 4.72975 -17.6378 0 0 0 
75 1 1 24.6615 4.37578 -18.0813 0 0 0 
76 1 2 25.523 4.05142 -17.4655 0 0 0 
77 1 1 24.2027 5.18 -19.6288 0 0 0 
78 1 1 23.2751 5.52851 -18.1369 0 0 0 
79 1 1 23.1237 3.9165 -18.9291 0 0 0 
80 1 2 23.8163 4.74793 -18.693 0 0 0 
81 1 1 22.4603 2.97379 -20.3148 0 0 0 
82 1 1 22.7164 2.17136 -18.736 0 0 0 
83 1 1 21.39 3.38029 -18.9213 0 0 0 
84 1 2 22.4214 3.11236 -19.2236 0 0 0 
85 1 1 19.7156 2.74834 -18.7095 0 0 0 
86 1 1 19.9717 4.34181 -19.4842 0 0 0 
87 1 1 20.2683 4.14852 -17.7177 0 0 0 
88 1 2 20.3389 3.65504 -18.7066 0 0 0 
89 1 1 19.1835 4.37686 -16.2952 0 0 0 
90 1 1 20.1444 5.75695 -16.9107 0 0 0 
91 1 1 20.9707 4.39626 -16.0654 0 0 0 
92 1 2 20.1431 4.66848 -16.7481 0 0 0 
93 1 1 21.4663 4.31612 -14.335 0 0 0 
94 1 1 22.6565 4.80829 -15.5802 0 0 0 
95 1 1 22.0996 3.09529 -15.4999 0 0 0 
96 1 2 21.7978 4.15259 -15.3715 0 0 0 
97 1 1 23.2904 1.98027 -16.2636 0 0 0 
98 1 1 22.7373 1.67667 -14.5882 0 0 0 
99 1 1 21.605 1.41365 -15.9668 0 0 0 
100 1 2 22.4306 2.04214 -15.58 0 0 0 
101 1 1 21.0527 -0.302219 -15.9572 0 0 0 
102 1 1 20.8938 0.674361 -17.4496 0 0 0 
103 1 1 19.8327 1.02321 -16.0344 0 0 0 
104 1 2 20.8457 0.70487 -16.3504 0 0 0 
105 1 1 18.3315 1.88941 -16.5308 0 0 0 
106 1 1 18.2134 0.282348 -15.7523 0 0 0 
107 1 1 18.7175 1.7132 -14.7779 0 0 0 
108 1 2 18.7762 1.22805 -15.7721 0 0 0 
109 1 1 19.3569 1.71058 -13.0922 0 0 0 
110 1 1 18.8184 3.24758 -13.8352 0 0 0 
111 1 1 17.5997 2.00093 -13.3757 0 0 0 
112 1 2 18.6213 2.16678 -13.7718 0 0 0 
113 1 1 16.2207 0.840498 -13.3132 0 0 0 
114 1 1 15.8981 2.60007 -13.4007 0 0 0 
115 1 1 16.5654 1.88655 -11.8859 0 0 0 
116 1 2 16.5734 1.83263 -12.9924 0 0 0 
117 1 1 16.9775 2.9237 -10.4702 0 0 0 
118 1 1 17.2225 1.15177 -10.3767 0 0 0 
119 1 1 15.5508 1.82528 -10.38 0 0 0 
120 1 2 16.5769 1.94656 -10.78 0 0 0 
121 1 1 14.2045 0.672941 -10.0494 0 0 0 
122 1 1 13.8392 2.39061 -10.4014 0 0 0 
123 1 1 14.6076 1.9414 -8.83286 0 0 0 
124 1 2 14.5522 1.70821 -9.91452 0 0 0 
125 1 1 14.5567 3.29636 -7.64486 0 0 0 
126 1 1 15.7478 1.97429 -7.43661 0 0 0 
127 1 2 14.7256 2.21543 -7.76619 0 0 0 
128 1 1 -2.5623 -3.12116 7.38781 0 0 0 
129 1 1 -4.63394 -1.75403 9.43277 0 0 0 
130 1 1 -5.55478 -0.241093 9.09847 0 0 0 
131 1 1 -5.83514 -1.69542 8.09031 0 0 0 
132 1 1 -6.40788 -1.66649 9.79845 0 0 0 
133 1 2 -5.60781 -1.34018 9.10662 0 0 0 
134 1 1 -7.7181 -2.87607 10.0622 0 0 0 
135 1 1 -7.94046 -1.18729 10.6178 0 0 0 
136 1 2 -7.20817 -1.99839 10.4876 0 0 0 
137 1 1 -5.93457 -3.55213 12.4119 0 0 0 
138 1 1 -5.55799 -1.82993 12.73 0 0 0 
139 1 1 -7.15534 -2.50366 13.226 0 0 0 
140 1 2 -6.35673 -2.53687 12.4594 0 0 0 
141 1 1 -8.30097 -1.44761 14.1335 0 0 0 
142 1 1 -7.63665 -2.91755 14.9132 0 0 0 
143 1 1 -8.83953 -3.07627 13.5783 0 0 0 
144 1 2 -7.98341 -2.48732 13.9615 0 0 0 
145 1 1 -9.50278 -4.73575 13.3453 0 0 0 
146 1 1 -9.74277 -3.49544 12.0754 0 0 0 
147 1 1 -10.6305 -3.35983 13.6389 0 0 0 
148 1 2 -9.6792 -3.6653 13.161 0 0 0 
149 1 1 -12.3425 -3.826 13.9604 0 0 0 
150 1 1 -11.9284 -2.10825 13.6639 0 0 0 
151 1 1 -11.4256 -2.89839 15.2038 0 0 0 
152 1 2 -11.5798 -3.04841 14.1177 0 0 0 
153 1 1 -10.7915 -3.64493 16.7167 0 0 0 
154 1 1 -10.5881 -1.88726 16.438 0 0 0 
155 1 1 -12.2256 -2.55363 16.7969 0 0 0 
156 1 2 -11.26 -2.74585 16.2882 0 0 0 
157 1 1 -13.9547 -2.09901 16.5619 0 0 0 
158 1 1 -13.0828 -1.54889 18.0261 0 0 0 
159 1 1 -13.5144 -3.28968 17.8416 0 0 0 
160 1 2 -13.1928 -2.37456 17.3068 0 0 0 
161 1 1 -13.7237 -5.07216 17.6703 0 0 0 
162 1 1 -13.1489 -4.38955 19.2232 0 0 0 
163 1 1 -14.8608 -4.14001 18.7142 0 0 0 
164 1 2 -13.8134 -4.22077 18.3621 0 0 0 
165 1 1 -16.3621 -5.07904 19.059 0 0 0 
166 1 1 -16.4816 -3.42673 18.3779 0 0 0 
167 1 1 -15.9483 -3.65523 20.0847 0 0 0 
168 1 2 -15.9113 -4.07502 19.0603 0 0 0 
169 1 1 -15.7843 -4.0293 21.8405 0 0 0 
170 1 1 -15.2292 -2.4462 21.2127 0 0 0 
171 1 1 -16.9935 -2.80534 21.3011 0 0 0 
172 1 2 -15.9905 -3.23394 21.1084 0 0 0 
173 1 1 -18.2522 -1.68105 20.6662 0 0 0 
174 1 1 -18.0481 -1.87956 22.4351 0 0 0 
175 1 1 -18.7513 -3.22098 21.4573 0 0 0 
176 1 2 -18.0106 -2.39829 21.4651 0 0 0 
177 1 1 -19.3191 -4.68479 22.3617 0 0 0 
178 1 2 -19.4671 -4.06541 21.4561 0 0 0 
179 1 1 -18.1668 -5.07687 23.6921 0 0 0 
180 1 2 -19.1563 -5.3025 23.2661 0 0 0 
181 1 1 -19.9404 -5.08494 24.0173 0 0 0 
182 1 1 -20.4735 -3.96011 25.3219 0 0 0 
183 1 1 -20.7904 -5.71627 25.4759 0 0 0 
184 1 1 -21.7051 -4.74325 24.2639 0 0 0 
185 1 2 -20.7277 -4.87619 24.7677 0 0 0 
186 1 1 -22.7729 -3.57268 23.4033 0 0 0 
187 1 1 -22.73 -5.28645 22.8839 0 0 0 
188 1 1 -23.5075 -4.84403 24.4493 0 0 0 
189 1 2 -22.6788 -4.61223 23.7523 0 0 0 
190 1 1 -24.1622 -4.61071 26.1137 0 0 0 
191 1 1 -24.4281 -6.16517 25.2618 0 0 0 
192 1 1 -25.2842 -4.68596 24.7185 0 0 0 
193 1 2 -24.3444 -5.07631 25.1347 0 0 0 
194 1 1 -6.77269 -2.26409 11.4702 0 0 0 
195 1 1 -3.22549 -1.50332 10.5299 0 0 0 
196 1 1 -2.96563 -2.22246 8.8976 0 0 0 
197 1 1 -3.80184 -3.1645 10.1862 0 0 0 
198 1 2 -3.65729 -2.16038 9.7599 0 0 0 
199 1 1 -19.3065 -4.68251 20.5593 0 0 0 
200 1 1 -20.4954 -3.67421 21.4421 0 0 0 
201 1 1 -19.1939 -6.368 22.993 0 0 0 
202 2 3 16.957 -25.5282 -26.4276 0 0 0 
203 2 3 17.0972 -24.0472 -26.9322 0 0 0 
204 2 4 16.8904 -24.6016 -26.1696 0 0 0 
205 3 3 11.957 -25.5282 -26.4276 0 0 0 
206 3 3 12.0972 -24.0472 -26.9322 0 0 0 
207 3 4 11.8904 -24.6016 -26.1696 0 0 0 
208 4 3 6.95697 -25.5282 -26.4276 0 0 0 
209 4 3 7.0972 -24.0472 -26.9322 0 0 0 
210 4 4 6.89041 -24.6016 -26.1696 0 0 0 
211 5 3 1.95697 -25.5282 -26.4276 0 0 0 
212 5 3 2.0972 -24.0472 -26.9322 0 0 0 
213 5 4 1.89041 -24.6016 -26.1696 0 0 0 
214 6 3 -3.04303 -25.5282 -26.4276 0 0 0 
215 6 3 -2.9028 -24.0472 -26.9322 0 0 0 
216 6 4 -3.10959 -24.6016 -26.1696 0 0 0 
217 7 3 -8.04303 -25.5282 -26.4276 0 0 0 
218 7 3 -7.9028 -24.0472 -26.9322 0 0 0 
219 7 4 -8.10959 -24.6016 -26.1696 0 0 0 
220 8 3 -13.043 -25.5282 -26.4276 0 0 0 
221 8 3 -12.9028 -24.0472 -26.9322 0 0 0 
222 8 4 -13.1096 -24.6016 -26.1696 0 0 0 
223 9 3 -18.043 -25.5282 -26.4276 0 0 0 
224 9 3 -17.9028 -24.0472 -26.9322 0 0 0 
225 9 4 -18.1096 -24.6016 -26.1696 0 0 0 
226 10 3 -23.043 -25.5282 -26.4276 0 0 0 
227 10 3 -22.9028 -24.0472 -26.9322 0 0 0 
228 10 4 -23.1096 -24.6016 -26.1696 0 0 0 
229 11 3 21.957 -25.5282 -26.4276 0 0 0 
230 11 3 22.0972 -24.0472 -26.9322 0 0 0 
231 11 4 21.8904 -24.6016 -26.1696 0 0 0 
232 12 3 26.957 -25.5282 -26.4276 0 0 0 
233 12 3 27.0972 -24.0472 -26.9322 0 0 0 
234 12 4 26.8904 -24.6016 -26.1696 0 0 0 
235 13 3 16.957 -20.5282 -26.4276 0 0 0 
236 13 3 17.0972 -19.0472 -26.9322 0 0 0 
237 13 4 16.8904 -19.6016 -26.1696 0 0 0 
238 14 3 11.957 -20.5282 -26.4276 0 0 0 
239 14 3 12.0972 -19.0472 -26.9322 0 0 0 
240 14 4 11.8904 -19.6016 -26.1696 0 0 0 
241 15 3 6.95697 -20.5282 -26.4276 0 0 0 
242 15 3 7.0972 -19.0472 -26.9322 0 0 0 
243 15 4 6.89041 -19.6016 -26.1696 0 0 0 
244 16 3 1.95697 -20.5282 -26.4276 0 0 0 
245 16 3 2.0972 -19.0472 -26.9322 0 0 0 
246 16 4 1.89041 -19.6016 -26.1696 0 0 0 
247 17 3 -3.04303 -20.5282 -26.4276 0 0 0 
248 17 3 -2.9028 -19.0472 -26.9322 0 0 0 
249 17 4 -3.10959 -19.6016 -26.1696 0 0 0 
250 18 3 -8.04303 -20.5282 -26.4276 0 0 0 
251 18 3 -7.9028 -19.0472 -26.9322 0 0 0 
252 18 4 -8.10959 -19.6016 -26.1696 0 0 0 
253 19 3 -13.043 -20.5282 -26.4276 0 0 0 
254 19 3 -12.9028 -19.0472 -26.9322 0 0 0 
255 19 4 -13.1096 -19.6016 -26.1696 0 0 0 
256 20 3 -18.043 -20.5282 -26.4276 0 0 0 
257 20 3 -17.9028 -19.0472 -26.9322 0 0 0 
258 20 4 -18.1096 -19.6016 -26.1696 0 0 0 
259 21 3 -23.043 -20.5282 -26.4276 0 0 0 
260 21 3 -22.9028 -19.0472 -26.9322 0 0 0 
261 21 4 -23.1096 -19.6016 -26.1696 0 0 0 
262 22 3 21.957 -20.5282 -26.4276 0 0 0 
263 22 3 22.0972 -19.0472 -26.9322 0 0 0 
264 22 4 21.8904 -19.6016 -26.1696 0 0 0 
265 23 3 26.957 -20.5282 -26.4276 0 0 0 
266 23 3 27.0972 -19.0472 -26.9322 0 0 0 
267 23 4 26.8904 -19.6016 -26.1696 0 0 0 
268 24 3 16.957 -15.5282 -26.4276 0 0 0 
269 24 3 17.0972 -14.0472 -26.9322 0 0 0 
270 24 4 16.8904 -14.6016 -26.1696 0 0 0 
271 25 3 11.957 -15.5282 -26.4276 0 0 0 
272 25 3 12.0972 -14.0472 -26.9322 0 0 0 
273 25 4 11.8904 -14.6016 -26.1696 0 0 0 
274 26 3 6.95697 -15.5282 -26.4276 0 0 0 
275 26 3 7.0972 -14.0472 -26.9322 0 0 0 
276 26 4 6.89041 -14.6016 -26.1696 0 0 0 
277 27 3 1.95697 -15.5282 -26.4276 0 0 0 
278 27 3 2.0972 -14.0472 -26.9322 0 0 0 
279 27 4 1.89041 -14.6016 -26.1696 0 0 0 
280 28 3 -3.04303 -15.5282 -26.4276 0 0 0 
281 28 3 -2.9028 -14.0472 -26.9322 0 0 0 
282 28 4 -3.10959 -14.6016 -26.1696 0 0 0 
283 29 3 -8.04303 -15.5282 -26.4276 0 0 0 
284 29 3 -7.9028 -14.0472 -26.9322 0 0 0 
285 29 4 -8.10959 -14.6016 -26.1696 0 0 0 
286 30 3 -13.043 -15.5282 -26.4276 0 0 0 
287 30 3 -12.9028 -14.0472 -26.9322 0 0 0 
288 30 4 -13.1096 -14.6016 -26.1696 0 0 0 
289 31 3 -18.043 -15.5282 -26.4276 0 0 0 
290 31 3 -17.9028 -14.0472 -26.9322 0 0 0 
291 31 4 -18.1096 -14.6016 -26.1696 0 0 0 
292 32 3 -23.043 -15.5282 -26.4276 0 0 0 
293 32 3 -22.9028 -14.0472 -26.9322 0 0 0 
294 32 4 -23.1096 -14.6016 -26.1696 0 0 0 
295 33 3 21.957 -15.5282 -26.4276 0 0 0 
296 33 3 22.0972 -14.0472 -26.9322 0 0 0 
297 33 4 21.8904 -14.6016 -26.1696 0 0 0 
298 34 3 26.957 -15.5282 -26.4276 0 0 0 
299 34 3 27.0972 -14.0472 -26.9322 0 0 0 
300 34 4 26.8904 -14.6016 -26.1696 0 0 0 
301 35 3 16.957 -10.5282 -26.4276 0 0 0 
302 35 3 17.0972 -9.04724 -26.9322 0 0 0 
303 35 4 16.8904 -9.6016 -26.1696 0 0 0 
304 36 3 11.957 -10.5282 -26.4276 0 0 0 
305 36 3 12.0972 -9.04724 -26.9322 0 0 0 
306 36 4 11.8904 -9.6016 -26.1696 0 0 0 
307 37 3 6.95697 -10.5282 -26.4276 0 0 0 
308 37 3 7.0972 -9.04724 -26.9322 0 0 0 
309 37 4 6.89041 -9.6016 -26.1696 0 0 0 
310 38 3 1.95697 -10.5282 -26.4276 0 0 0 
311 38 3 2.0972 -9.04724 -26.9322 0 0 0 
312 38 4 1.89041 -9.6016 -26.1696 0 0 0 
313 39 3 -3.04303 -10.5282 -26.4276 0 0 0 
314 39 3 -2.9028 -9.04724 -26.9322 0 0 0 
315 39 4 -3.10959 -9.6016 -26.1696 0 0 0 
316 40 3 -8.04303 -10.5282 -26.4276 0 0 0 
317 40 3 -7.9028 -9.04724 -26.9322 0 0 0 
318 40 4 -8.10959 -9.6016 -26.1696 0 0 0 
319 41 3 -13.043 -10.5282 -26.4276 0 0 0 
320 41 3 -12.9028 -9.04724 -26.9322 0 0 0 
321 41 4 -13.1096 -9.6016 -26.1696 0 0 0 
322 42 3 -18.043 -10.5282 -26.4276 0 0 0 
323 42 3 -17.9028 -9.04724 -26.9322 0 0 0 
324 42 4 -18.1096 -9.6016 -26.1696 0 0 0 
325 43 3 -23.043 -10.5282 -26.4276 0 0 0 
326 43 3 -22.9028 -9.04724 -26.9322 0 0 0 
327 43 4 -23.1096 -9.6016 -26.1696 0 0 0 
328 44 3 21.957 -10.5282 -26.4276 0 0 0 
329 44 3 22.0972 -9.04724 -26.9322 0 0 0 
330 44 4 21.8904 -9.6016 -26.1696 0 0 0 
331 45 3 26.957 -10.5282 -26.4276 0 0 0 
332 45 3 27.0972 -9.04724 -26.9322 0 0 0 
333 45 4 26.8904 -9.6016 -26.1696 0 0 0 
334 46 3 16.957 -5.52815 -26.4276 0 0 0 
335 46 3 17.0972 -4.04724 -26.9322 0 0 0 
336 46 4 16.8904 -4.6016 -26.1696 0 0 0 
337 47 3 11.957 -5.52815 -26.4276 0 0 0 
338 47 3 12.0972 -4.04724 -26.9322 0 0 0 
339 47 4 11.8904 -4.6016 -26.1696 0 0 0 
340 48 3 6.95697 -5.52815 -26.4276 0 0 0 
341 48 3 7.0972 -4.04724 -26.9322 0 0 0 
342 48 4 6.89041 -4.6016 -26.1696 0 0 0 
343 49 3 1.95697 -5.52815 -26.4276 0 0 0 
344 49 3 2.0972 -4.04724 -26.9322 0 0 0 
345 49 4 1.89041 -4.6016 -26.1696 0 0 0 
346 50 3 -3.04303 -5.52815 -26.4276 0 0 0 
347 50 3 -2.9028 -4.04724 -26.9322 0 0 0 
348 50 4 -3.10959 -4.6016 -26.1696 0 0 0 
349 51 3 -8.04303 -5.52815 -26.4276 0 0 0 
350 51 3 -7.9028 -4.04724 -26.9322 0 0 0 
351 51 4 -8.10959 -4.6016 -26.1696 0 0 0 
352 52 3 -13.043 -5.52815 -26.4276 0 0 0 
353 52 3 -12.9028 -4.04724 -26.9322 0 0 0 
354 52 4 -13.1096 -4.6016 -26.1696 0 0 0 
355 53 3 -18.043 -5.52815 -26.4276 0 0 0 
356 53 3 -17.9028 -4.04724 -26.9322 0 0 0 
357 53 4 -18.1096 -4.6016 -26.1696 0 0 0 
358 54 3 -23.043 -5.52815 -26.4276 0 0 0 
359 54 3 -22.9028 -4.04724 -26.9322 0 0 0 
360 54 4 -23.1096 -4.6016 -26.1696 0 0 0 
361 55 3 21.957 -5.52815 -26.4276 0 0 0 
362 55 3 22.0972 -4.04724 -26.9322 0 0 0 
363 55 4 21.8904 -4.6016 -26.1696 0 0 0 
364 56 3 26.957 -5.52815 -26.4276 0 0 0 
365 56 3 27.0972 -4.04724 -26.9322 0 0 0 
366 56 4 26.8904 -4.6016 -26.1696 0 0 0 
367 57 3 16.957 -0.528152 -26.4276 0 0 0 
368 57 3 17.0972 0.952765 -26.9322 0 0 0 
369 57 4 16.8904 0.398403 -26.1696 0 0 0 
370 58 3 11.957 -0.528152 -26.4276 0 0 0 
371 58 3 12.0972 0.952765 -26.9322 0 0 0 
372 58 4 11.8904 0.398403 -26.1696 0 0 0 
373 59 3 6.95697 -0.528152 -26.4276 0 0 0 
374 59 3 7.0972 0.952765 -26.9322 0 0 0 
375 59 4 6.89041 0.398403 -26.1696 0 0 0 
376 60 3 1.95697 -0.528152 -26.4276 0 0 0 
377 60 3 2.0972 0.952765 -26.9322 0 0 0 
378 60 4 1.89041 0.398403 -26.1696 0 0 0 
379 61 3 -3.04303 -0.528152 -26.4276 0 0 0 
380 61 3 -2.9028 0.952765 -26.9322 0 0 0 
381 61 4 -3.10959 0.398403 -26.1696 0 0 0 
382 62 3 -8.04303 -0.528152 -26.4276 0 0 0 
383 62 3 -7.9028 0.952765 -26.9322 0 0 0 
384 62 4 -8.10959 0.398403 -26.1696 0 0 0 
385 63 3 -13.043 -0.528152 -26.4276 0 0 0 
386 63 3 -12.9028 0.952765 -26.9322 0 0 0 
387 63 4 -13.1096 0.398403 -26.1696 0 0 0 
388 64 3 -18.043 -0.528152 -26.4276 0 0 0 
389 64 3 -17.9028 0.952765 -26.9322 0 0 0 
390 64 4 -18.1096 0.398403 -26.1696 0 0 0 
391 65 3 -23.043 -0.528152 -26.4276 0 0 0 
392 65 3 -22.9028 0.952765 -26.9322 0 0 0 
393 65 4 -23.1096 0.398403 -26.1696 0 0 0 
394 66 3 21.957 -0.528152 -26.4276 0 0 0 
395 66 3 22.0972 0.952765 -26.9322 0 0 0 
396 66 4 21.8904 0.398403 -26.1696 0 0 0 
397 67 3 26.957 -0.528152 -26.4276 0 0 0 
398 67 3 27.0972 0.952765 -26.9322 0 0 0 
399 67 4 26.8904 0.398403 -26.1696 0 0 0 
400 68 3 16.957 4.47185 -26.4276 0 0 0 
401 68 3 17.0972 5.95276 -26.9322 0 0 0 
402 68 4 16.8904 5.3984 -26.1696 0 0 0 
403 69 3 11.957 4.47185 -26.4276 0 0 0 
404 69 3 12.0972 5.95276 -26.9322 0 0 0 
405 69 4 11.8904 5.3984 -26.1696 0 0 0 
406 70 3 6.95697 4.47185 -26.4276 0 0 0 
407 70 3 7.0972 5.95276 -26.9322 0 0 0 
408 70 4 6.89041 5.3984 -26.1696 0 0 0 
409 71 3 1.95697 4.47185 -26.4276 0 0 0 
410 71 3 2.0972 5.95276 -26.9322 0 0 0 
411 71 4 1.89041 5.3984 -26.1696 0 0 0 
412 72 3 -3.04303 4.47185 -26.4276 0 0 0 
413 72 3 -2.9028 5.95276 -26.9322 0 0 0 
414 72 4 -3.10959 5.3984 -26.1696 0 0 0 
415 73 3 -8.04303 4.47185 -26.4276 0 0 0 
416 73 3 -7.9028 5.95276 -26.9322 0 0 0 
417 73 4 -8.10959 5.3984 -26.1696 0 0 0 
418 74 3 -13.043 4.47185 -26.4276 0 0 0 
419 74 3 -12.9028 5.95276 -26.9322 0 0 0 
420 74 4 -13.1096 5.3984 -26.1696 0 0 0 
421 75 3 -18.043 4.47185 -26.4276 0 0 0 
422 75 3 -17.9028 5.95276 -26.9322 0 0 0 
423 75 4 -18.1096 5.3984 -26.1696 0 0 0 
424 76 3 -23.043 4.47185 -26.4276 0 0 0 
425 76 3 -22.9028 5.95276 -26.9322 0 0 0 
426 76 4 -23.1096 5.3984 -26.1696 0 0 0 
427 77 3 21.957 4.47185 -26.4276 0 0 0 
428 77 3 22.0972 5.95276 -26.9322 0 0 0 
429 77 4 21.8904 5.3984 -26.1696 0 0 0 
430 78 3 26.957 4.47185 -26.4276 0 0 0 
431 78 3 27.0972 5.95276 -26.9322 0 0 0 
432 78 4 26.8904 5.3984 -26.1696 0 0 0 
433 79 3 16.957 9.47185 -26.4276 0 0 0 
434 79 3 17.0972 10.9528 -26.9322 0 0 0 
435 79 4 16.8904 10.3984 -26.1696 0 0 0 
436 80 3 11.957 9.47185 -26.4276 0 0 0 
437 80 3 12.0972 10.9528 -26.9322 0 0 0 
438 80 4 11.8904 10.3984 -26.1696 0 0 0 
439 81 3 6.95697 9.47185 -26.4276 0 0 0 
440 81 3 7.0972 10.9528 -26.9322 0 0 0 
441 81 4 6.89041 10.3984 -26.1696 0 0 0 
442 82 3 1.95697 9.47185 -26.4276 0 0 0 
443 82 3 2.0972 10.9528 -26.9322 0 0 0 
444 82 4 1.89041 10.3984 -26.1696 0 0 0 
445 83 3 -3.04303 9.47185 -26.4276 0 0 0 
446 83 3 -2.9028 10.9528 -26.9322 0 0 0 
447 83 4 -3.10959 10.3984 -26.1696 0 0 0 
448 84 3 -8.04303 9.47185 -26.4276 0 0 0 
449 84 3 -7.9028 10.9528 -26.9322 0 0 0 
450 84 4 -8.10959 10.3984 -26.1696 0 0 0 
451 85 3 -13.043 9.47185 -26.4276 0 0 0 
452 85 3 -12.9028 10.9528 -26.9322 0 0 0 
453 85 4 -13.1096 10.3984 -26.1696 0 0 0 
454 86 3 -18.043 9.47185 -26.4276 0 0 0 
455 86 3 -17.9028 10.9528 -26.9322 0 0 0 
456 86 4 -18.1096 10.3984 -26.1696 0 0 0 
457 87 3 -23.043 9.47185 -26.4276 0 0 0 
458 87 3 -22.9028 10.9528 -26.9322 0 0 0 
459 87 4 -23.1096 10.3984 -26.1696 0 0 0 
460 88 3 21.957 9.47185 -26.4276 0 0 0 
461 88 3 22.0972 10.9528 -26.9322 0 0 0 
462 88 4 21.8904 10.3984 -26.1696 0 0 0 
463 89 3 26.957 9.47185 -26.4276 0 0 0 
464 89 3 27.0972 10.9528 -26.9322 0 0 0 
465 89 4 26.8904 10.3984 -26.1696 0 0 0 
466 90 3 16.957 14.4718 -26.4276 0 0 0 
467 90 3 17.0972 15.9528 -26.9322 0 0 0 
468 90 4 16.8904 15.3984 -26.1696 0 0 0 
469 91 3 11.957 14.4718 -26.4276 0 0 0 
470 91 3 12.0972 15.9528 -26.9322 0 0 0 
471 91 4 11.8904 15.3984 -26.1696 0 0 0 
472 92 3 6.95697 14.4718 -26.4276 0 0 0 
473 92 3 7.0972 15.9528 -26.9322 0 0 0 
474 92 4 6.89041 15.3984 -26.1696 0 0 0 
475 93 3 1.95697 14.4718 -26.4276 0 0 0 
476 93 3 2.0972 15.9528 -26.9322 0 0 0 
477 93 4 1.89041 15.3984 -26.1696 0 0 0 
478 94 3 -3.04303 14.4718 -26.4276 0 0 0 
479 94 3 -2.9028 15.9528 -26.9322 0 0 0 
480 94 4 -3.10959 15.3984 -26.1696 0 0 0 
481 95 3 -8.04303 14.4718 -26.4276 0 0 0 
482 95 3 -7.9028 15.9528 -26.9322 0 0 0 
483 95 4 -8.10959 15.3984 -26.1696 0 0 0 
484 96 3 -13.043 14.4718 -26.4276 0 0 0 
485 96 3 -12.9028 15.9528 -26.9322 0 0 0 
486 96 4 -13.1096 15.3984 -26.1696 0 0 0 
487 97 3 -18.043 14.4718 -26.4276 0 0 0 
488 97 3 -17.9028 15.9528 -26.9322 0 0 0 
489 97 4 -18.1096 15.3984 -26.1696 0 0 0 
490 98 3 -23.043 14.4718 -26.4276 0 0 0 
491 98 3 -22.9028 15.9528 -26.9322 0 0 0 
492 98 4 -23.1096 15.3984 -26.1696 0 0 0 
493 99 3 21.957 14.4718 -26.4276 0 0 0 
494 99 3 22.0972 15.9528 -26.9322 0 0 0 
495 99 4 21.8904 15.3984 -26.1696 0 0 0 
496 100 3 26.957 14.4718 -26.4276 0 0 0 
497 100 3 27.0972 15.9528 -26.9322 0 0 0 
498 100 4 26.8904 15.3984 -26.1696 0 0 0 
499 101 3 16.957 19.4718 -26.4276 0 0 0 
500 101 3 17.0972 20.9528 -26.9322 0 0 0 
501 101 4 16.8904 20.3984 -26.1696 0 0 0 
502 102 3 11.957 19.4718 -26.4276 0 0 0 
503 102 3 12.0972 20.9528 -26.9322 0 0 0 
504 102 4 11.8904 20.3984 -26.1696 0 0 0 
505 103 3 6.95697 19.4718 -26.4276 0 0 0 
506 103 3 7.0972 20.9528 -26.9322 0 0 0 
507 103 4 6.89041 20.3984 -26.1696 0 0 0 
508 104 3 1.95697 19.4718 -26.4276 0 0 0 
509 104 3 2.0972 20.9528 -26.9322 0 0 0 
510 104 4 1.89041 20.3984 -26.1696 0 0 0 
511 105 3 -3.04303 19.4718 -26.4276 0 0 0 
512 105 3 -2.9028 20.9528 -26.9322 0 0 0 
513 105 4 -3.10959 20.3984 -26.1696 0 0 0 
514 106 3 -8.04303 19.4718 -26.4276 0 0 0 
515 106 3 -7.9028 20.9528 -26.9322 0 0 0 
516 106 4 -8.10959 20.3984 -26.1696 0 0 0 
517 107 3 -13.043 19.4718 -26.4276 0 0 0 
518 107 3 -12.9028 20.9528 -26.9322 0 0 0 
519 107 4 -13.1096 20.3984 -26.1696 0 0 0 
520 108 3 -18.043 19.4718 -26.4276 0 0 0 
521 108 3 -17.9028 20.9528 -26.9322 0 0 0 
522 108 4 -18.1096 20.3984 -26.1696 0 0 0 
523 109 3 -23.043 19.4718 -26.4276 0 0 0 
524 109 3 -22.9028 20.9528 -26.9322 0 0 0 
525 109 4 -23.1096 20.3984 -26.1696 0 0 0 
526 110 3 21.957 19.4718 -26.4276 0 0 0 
527 110 3 22.0972 20.9528 -26.9322 0 0 0 
528 110 4 21.8904 20.3984 -26.1696 0 0 0 
529 111 3 26.957 19.4718 -26.4276 0 0 0 
530 111 3 27.0972 20.9528 -26.9322 0 0 0 
531 111 4 26.8904 20.3984 -26.1696 0 0 0 
532 112 3 16.957 24.4718 -26.4276 0 0 0 
533 112 3 17.0972 25.9528 -26.9322 0 0 0 
534 112 4 16.8904 25.3984 -26.1696 0 0 0 
535 113 3 11.957 24.4718 -26.4276 0 0 0 
536 113 3 12.0972 25.9528 -26.9322 0 0 0 
537 113 4 11.8904 25.3984 -26.1696 0 0 0 
538 114 3 6.95697 24.4718 -26.4276 0 0 0 
539 114 3 7.0972 25.9528 -26.9322 0 0 0 
540 114 4 6.89041 25.3984 -26.1696 0 0 0 
541 115 3 1.95697 24.4718 -26.4276 0 0 0 
542 115 3 2.0972 25.9528 -26.9322 0 0 0 
543 115 4 1.89041 25.3984 -26.1696 0 0 0 
544 116 3 -3.04303 24.4718 -26.4276 0 0 0 
545 116 3 -2.9028 25.9528 -26.9322 0 0 0 
546 116 4 -3.10959 25.3984 -26.1696 0 0 0 
547 117 3 -8.04303 24.4718 -26.4276 0 0 0 
548 117 3 -7.9028 25.9528 -26.9322 0 0 0 
549 117 4 -8.10959 25.3984 -26.1696 0 0 0 
550 118 3 -13.043 24.4718 -26.4276 0 0 0 
551 118 3 -12.9028 25.9528 -26.9322 0 0 0 
552 118 4 -13.1096 25.3984 -26.1696 0 0 0 
553 119 3 -18.043 24.4718 -26.4276 0 0 0 
554 119 3 -17.9028 25.9528 -26.9322 0 0 0 
555 119 4 -18.1096 25.3984 -26.1696 0 0 0 
556 120 3 -23.043 24.4718 -26.4276 0 0 0 
557 120 3 -22.9028 25.9528 -26.9322 0 0 0 
558 120 4 -23.1096 25.3984 -26.1696 0 0 0 
559 121 3 21.957 24.4718 -26.4276 0 0 0 
560 121 3 22.0972 25.9528 -26.9322 0 0 0 
561 121 4 21.8904 25.3984 -26.1696 0 0 0 
562 122 3 26.957 24.4718 -26.4276 0 0 0 
563 122 3 27.0972 25.9528 -26.9322 0 0 0 
564 122 4 26.8904 25.3984 -26.1696 0 0 0 
565 123 3 16.957 -25.5282 -21.4276 0 0 0 
566 123 3 17.0972 -24.0472 -21.9322 0 0 0 
567 123 4 16.8904 -24.6016 -21.1696 0 0 0 
568 124 3 11.957 -25.5282 -21.4276 0 0 0 
569 124 3 12.0972 -24.0472 -21.9322 0 0 0 
570 124 4 11.8904 -24.6016 -21.1696 0 0 0 
571 125 3 6.95697 -25.5282 -21.4276 0 0 0 
572 125 3 7.0972 -24.0472 -21.9322 0 0 0 
573 125 4 6.89041 -24.6016 -21.1696 0 0 0 
574 126 3 1.95697 -25.5282 -21.4276 0 0 0 
575 126 3 2.0972 -24.0472 -21.9322 0 0 0 
576 126 4 1.89041 -24.6016 -21.1696 0 0 0 
577 127 3 -3.04303 -25.5282 -21.4276 0 0 0 
578 127 3 -2.9028 -24.0472 -21.9322 0 0 0 
579 127 4 -3.10959 -24.6016 -21.1696 0 0 0 
580 128 3 -8.04303 -25.5282 -21.4276 0 0 0 
581 128 3 -7.9028 -24.0472 -21.9322 0 0 0 
582 128 4 -8.10959 -24.6016 -21.1696 0 0 0 
583 129 3 -13.043 -25.5282 -21.4276 0 0 0 
584 129 3 -12.9028 -24.0472 -21.9322 0 0 0 
585 129 4 -13.1096 -24.6016 -21.1696 0 0 0 
586 130 3 -18.043 -25.5282 -21.4276 0 0 0 
587 130 3 -17.9028 -24.0472 -21.9322 0 0 0 
588 130 4 -18.1096 -24.6016 -21.1696 0 0 0 
589 131 3 -23.043 -25.5282 -21.4276 0 0 0 
590 131 3 -22.9028 -24.0472 -21.9322 0 0 0 
591 131 4 -23.1096 -24.6016 -21.1696 0 0 0 
592 132 3 21.957 -25.5282 -21.4276 0 0 0 
593 132 3 22.0972 -24.0472 -21.9322 0 0 0 
594 132 4 21.8904 -24.6016 -21.1696 0 0 0 
595 133 3 26.957 -25.5282 -21.4276 0 0 0 
596 133 3 27.0972 -24.0472 -21.9322 0 0 0 
597 133 4 26.8904 -24.6016 -21.1696 0 0 0 
598 134 3 16.957 -20.5282 -21.4276 0 0 0 
599 134 3 17.0972 -19.0472 -21.9322 0 0 0 
600 134 4 16.8904 -19.6016 -21.1696 0 0 0 
601 135 3 11.957 -20.5282 -21.4276 0 0 0 
602 135 3 12.0972 -19.0472 -21.9322 0 0 0 
603 135 4 11.8904 -19.6016 -21.1696 0 0 0 
604 136 3 6.95697 -20.5282 -21.4276 0 0 0 
605 136 3 7.0972 -19.0472 -21.9322 0 0 0 
606 136 4 6.89041 -19.6016 -21.1696 0 0 0 
607 137 3 1.95697 -20.5282 -21.4276 0 0 0 
608 137 3 2.0972 -19.0472 -21.9322 0 0 0 
609 137 4 1.89041 -19.6016 -21.1696 0 0 0 
610 138 3 -3.04303 -20.5282 -21.4276 0 0 0 
611 138 3 -2.9028 -19.0472 -21.9322 0 0 0 
612 138 4 -3.10959 -19.6016 -21.1696 0 0 0 
613 139 3 -8.04303 -20.5282 -21.4276 0 0 0 
614 139 3 -7.9028 -19.0472 -21.9322 0 0 0 
615 139 4 -8.10959 -19.6016 -21.1696 0 0 0 
616 140 3 -13.043 -20.5282 -21.4276 0 0 0 
617 140 3 -12.9028 -19.0472 -21.9322 0 0 0 
618 140 4 -13.1096 -19.6016 -21.1696 0 0 0 
619 141 3 -18.043 -20.5282 -21.4276 0 0 0 
620 141 3 -17.9028 -19.0472 -21.9322 0 0 0 
621 141 4 -18.1096 -19.6016 -21.1696 0 0 0 
622 142 3 -23.043 -20.5282 -21.4276 0 0 0 
623 142 3 -22.9028 -19.0472 -21.9322 0 0 0 
624 142 4 -23.1096 -19.6016 -21.1696 0 0 0 
625 143 3 21.957 -20.5282 -21.4276 0 0 0 
626 143 3 22.0972 -19.0472 -21.9322 0 0 0 
627 143 4 21.8904 -19.6016 -21.1696 0 0 0 
628 144 3 26.957 -20.5282 -21.4276 0 0 0 
629 144 3 27.0972 -19.0472 -21.9322 0 0 0 
630 144 4 26.8904 -19.6016 -21.1696 0 0 0 
631 145 3 16.957 -15.5282 -21.4276 0 0 0 
632 145 3 17.0972 -14.0472 -21.9322 0 0 0 
633 145 4 16.8904 -14.6016 -21.1696 0 0 0 
634 146 3 11.957 -15.5282 -21.4276 0 0 0 
635 146 3 12.0972 -14.0472 -21.9322 0 0 0 
636 146 4 11.8904 -14.6016 -21.1696 0 0 0 
637 147 3 6.95697 -15.5282 -21.4276 0 0 0 
638 147 3 7.0972 -14.0472 -21.9322 0 0 0 
639 147 4 6.89041 -14.6016 -21.1696 0 0 0 
640 148 3 1.95697 -15.5282 -21.4276 0 0 0 
641 148 3 2.0972 -14.0472 -21.9322 0 0 0 
642 148 4 1.89041 -14.6016 -21.1696 0 0 0 
643 149 3 -3.04303 -15.5282 -21.4276 0 0 0 
644 149 3 -2.9028 -14.0472 -21.9322 0 0 0 
645 149 4 -3.10959 -14.6016 -21.1696 0 0 0 
646 150 3 -8.04303 -15.5282 -21.4276 0 0 0 
647 150 3 -7.9028 -14.0472 -21.9322 0 0 0 
648 150 4 -8.10959 -14.6016 -21.1696 0 0 0 
649 151 3 -13.043 -15.5282 -21.4276 0 0 0 
650 151 3 -12.9028 -14.0472 -21.9322 0 0 0 
651 151 4 -13.1096 -14.6016 -21.1696 0 0 0 
652 152 3 -18.043 -15.5282 -21.4276 0 0 0 
653 152 3 -17.9028 -14.0472 -21.9322 0 0 0 
654 152 4 -18.1096 -14.6016 -21.1696 0 0 0 
655 153 3 -23.043 -15.5282 -21.4276 0 0 0 
656 153 3 -22.9028 -14.0472 -21.9322 0 0 0 
657 153 4 -23.1096 -14.6016 -21.1696 0 0 0 
658 154 3 21.957 -15.5282 -21.4276 0 0 0 
659 154 3 22.0972 -14.0472 -21.9322 0 0 0 
660 154 4 21.8904 -14.6016 -21.1696 0 0 0 
661 155 3 26.957 -15.5282 -21.4276 0 0 0 
662 155 3 27.0972 -14.0472 -21.9322 0 0 0 
663 155 4 26.8904 -14.6016 -21.1696 0 0 0 
664 156 3 16.957 -10.5282 -21.4276 0 0 0 
665 156 3 17.0972 -9.04724 -21.9322 0 0 0 
666 156 4 16.8904 -9.6016 -21.1696 0 0 0 
667 157 3 11.957 -10.5282 -21.4276 0 0 0 
668 157 3 12.0972 -9.04724 -21.9322 0 0 0 
669 157 4 11.8904 -9.6016 -21.1696 0 0 0 
670 158 3 6.95697 -10.5282 -21.4276 0 0 0 
671 158 3 7.0972 -9.04724 -21.9322 0 0 0 
672 158 4 6.89041 -9.6016 -21.1696 0 0 0 
673 159 3 1.95697 -10.5282 -21.4276 0 0 0 
674 159 3 2.0972 -9.04724 -21.9322 0 0 0 
675 159 4 1.89041 -9.6016 -21.1696 0 0 0 
676 160 3 -3.04303 -10.5282 -21.4276 0 0 0 
677 160 3 -2.9028 -9.04724 -21.9322 0 0 0 
678 160 4 -3.10959 -9.6016 -21.1696 0 0 0 
679 161 3 -8.04303 -10.5282 -21.4276 0 0 0 
680 161 3 -7.9028 -9.04724 -21.9322 0 0 0 
681 161 4 -8.10959 -9.6016 -21.1696 0 0 0 
682 162 3 -13.043 -10.5282 -21.4276 0 0 0 
683 162 3 -12.9028 -9.04724 -21.9322 0 0 0 
684 162 4 -13.1096 -9.6016 -21.1696 0 0 0 
685 163 3 -18.043 -10.5282 -21.4276 0 0 0 
686 163 3 -17.9028 -9.04724 -21.9322 0 0 0 
687 163 4 -18.1096 -9.6016 -21.1696 0 0 0 
688 164 3 -23.043 -10.5282 -21.4276 0 0 0 
689 164 3 -22.9028 -9.04724 -21.9322 0 0 0 
690 164 4 -23.1096 -9.6016 -21.1696 0 0 0 
691 165 3 21.957 -10.5282 -21.4276 0 0 0 
692 165 3 22.0972 -9.04724 -21.9322 0 0 0 
693 165 4 21.8904 -9.6016 -21.1696 0 0 0 
694 166 3 26.957 -10.5282 -21.4276 0 0 0 
695 166 3 27.0972 -9.04724 -21.9322 0 0 0 
696 166 4 26.8904 -9.6016 -21.1696 0 0 0 
697 167 3 16.957 -25.5282 -16.4276 0 0 0 
698 167 3 17.0972 -24.0472 -16.9322 0 0 0 
699 167 4 16.8904 -24.6016 -16.1696 0 0 0 
700 168 3 11.957 -25.5282 -16.4276 0 0 0 
701 168 3 12.0972 -24.0472 -16.9322 0 0 0 
702 168 4 11.8904 -24.6016 -16.1696 0 0 0 
703 169 3 6.95697 -25.5282 -16.4276 0 0 0 
704 169 3 7.0972 -24.0472 -16.9322 0 0 0 
705 169 4 6.89041 -24.6016 -16.1696 0 0 0 
706 170 3 1.95697 -25.5282 -16.4276 0 0 0 
707 170 3 2.0972 -24.0472 -16.9322 0 0 0 
708 170 4 1.89041 -24.6016 -16.1696 0 0 0 
709 171 3 -3.04303 -25.5282 -16.4276 0 0 0 
710 171 3 -2.9028 -24.0472 -16.9322 0 0 0 
711 171 4 -3.10959 -24.6016 -16.1696 0 0 0 
712 172 3 -8.04303 -25.5282 -16.4276 0 0 0 
713 172 3 -7.9028 -24.0472 -16.9322 0 0 0 
714 172 4 -8.10959 -24.6016 -16.1696 0 0 0 
715 173 3 -13.043 -25.5282 -16.4276 0 0 0 
716 173 3 -12.9028 -24.0472 -16.9322 0 0 0 
717 173 4 -13.1096 -24.6016 -16.1696 0 0 0 
718 174 3 -18.043 -25.5282 -16.4276 0 0 0 
719 174 3 -17.9028 -24.0472 -16.9322 0 0 0 