LAMMPS (24 Apr 2013)
WARNING: OMP_NUM_THREADS environment is not set. (../comm.cpp:100)
  using 1 OpenMP thread(s) per MPI task
# ----------------- Init Section -----------------
units           real
atom_style      full
boundary		p p p
kspace_style	pppm 1.0e-4

# ----------------- Atom Definition Section -----------------
read_restart	confout-2.data
  orthogonal box = (14.6308 2.78152 2.78152) to (248.369 47.2185 47.2185)
  1 by 1 by 1 MPI processor grid
  44200 atoms
  29498 bonds
  14700 angles
  2 = max # of 1-2 neighbors
  2 = max # of 1-3 neighbors
  4 = max # of 1-4 neighbors
  6 = max # of special neighbors

# ----------------- Settings Section -----------------------

group 			spc		type	1 2
44100 atoms in group spc
group			p1_end_atom	id 	44150
1 atoms in group p1_end_atom
group			p2_end_atom	id 	44200
1 atoms in group p2_end_atom

# ----------------- Run Section -----------------
# Write initial structure out
dump            icrd all custom 5 system-3.lammpstrj id mol type x y z ix iy iz
dump_modify     icrd sort id
run             1
WARNING: No fixes defined, atoms won't move (../verlet.cpp:54)
PPPM initialization ...
  G vector (1/distance) = 0.263116
  grid = 90 25 25
  stencil order = 5
  estimated absolute RMS force accuracy = 0.0403477
  estimated relative force accuracy = 0.000121506
  using double precision FFTs
  3d grid and FFT values/proc = 97280 56250
Memory usage per processor = 114.769 Mbytes
Step Temp E_pair E_mol TotEng Press 
  250002    197.78762   -144527.08    26.848074   -118441.95    23889.582 
  250003    197.78762   -144527.08    26.848074   -118441.95    23889.582 
Loop time of 0.477092 on 1 procs (1 MPI x 1 OpenMP) for 1 steps with 44200 atoms

Pair  time (%) = 0.437028 (91.6025)
Bond  time (%) = 0.00335598 (0.703424)
Kspce time (%) = 0.0353889 (7.41764)
Neigh time (%) = 0 (0)
Comm  time (%) = 0.000777006 (0.162863)
Outpt time (%) = 0.000270128 (0.0566197)
Other time (%) = 0.000271797 (0.0569695)

FFT time (% of Kspce) = 0.00815998 (23.058)
FFT Gflps 3d (1d only) = 1.50794 2.96882

Nlocal:    44200 ave 44200 max 44200 min
Histogram: 1 0 0 0 0 0 0 0 0 0
Nghost:    69761 ave 69761 max 69761 min
Histogram: 1 0 0 0 0 0 0 0 0 0
Neighs:    1.45805e+07 ave 1.45805e+07 max 1.45805e+07 min
Histogram: 1 0 0 0 0 0 0 0 0 0

Total # of neighbors = 14580484
Ave neighs/atom = 329.875
Ave special neighs/atom = 2.00851
Neighbor list builds = 0
Dangerous builds = 0

# Reset the timestep
undump          icrd

# Timestep and Neighbour searching
timestep		2.0
neighbor        2.0 bin
neigh_modify	delay 4 every 1 check yes

# Fixes
fix 			pull p1_end_atom addforce  0.55 0.0 0.0
fix 			pull p2_end_atom addforce -0.55 0.0 0.0
WARNING: Replacing a fix, but new group != old group (../modify.cpp:657)
fix 			shake spc shake 0.0001 10 0 b 1 a 1
  0 = # of size 2 clusters
  0 = # of size 3 clusters
  0 = # of size 4 clusters
  14700 = # of frozen angles
fix   			npt all npt temp 300.0 300.0 100.0 iso 1.0 1.0 1000.0

# Initial velocity
#velocity		all create 300 432567 dist uniform

# Write out thermodynamic information
thermo_style    custom step temp press vol pe ke evdwl ecoul epair
thermo	        250

# Write out trajectory
dump            cxtc all xtc 250 traj-3.xtc

# Write out velocity
#dump 			1 all custom 1 vel_npt.txt vx vy vz

# Checkpoint files
restart         5000 state_cpt-*.data

# Final run command
run             100000
PPPM initialization ...
  G vector (1/distance) = 0.263116
  grid = 90 25 25
  stencil order = 5
  estimated absolute RMS force accuracy = 0.0403477
  estimated relative force accuracy = 0.000121506
  using double precision FFTs
  3d grid and FFT values/proc = 97280 56250
Memory usage per processor = 121.374 Mbytes
Step Temp Press Volume PotEng KinEng E_vdwl E_coul E_pair 
  250003    296.34953   -83.464123     461549.9   -144500.24    26058.286    24471.552    561351.55   -144527.08 
  250250    298.26392    113.97329     460646.6   -144933.82     26226.62    24990.645    560390.47   -144962.28 
  250500    297.25641   -1.6217557     460141.7   -144732.99    26138.029    24666.403    560928.22   -144762.66 
  250750    300.59807   -89.807452     460913.5   -145203.64    26431.864    24634.181     560480.7   -145233.17 
  251000    299.71928   -52.030078    461399.15   -144912.39    26354.591    24625.097    560792.47   -144943.84 
  251250    300.36284    72.380269    459953.38   -144784.56    26411.179    24733.657    560799.09   -144808.96 
  251500    300.62146   -145.85951    461469.68   -144899.18     26433.92    24513.547    560917.78   -144923.42 
  251750    299.89743   -114.19036    461478.12   -144958.88    26370.255    24537.778    560836.02   -144987.33 
  252000    297.55491    19.642328    460661.25   -144989.91    26164.275    24793.495    560556.59   -145013.58 
  252250    296.81282    -53.60872    461366.56   -145020.07    26099.023    24724.871    560576.46   -145049.73 
  252500    299.14683   -19.407127     461166.3   -144823.26    26304.255    24744.315    560756.09   -144848.29 
  252750    300.77317    11.462553     460968.2   -144597.41     26447.26    24629.099    561096.25   -144624.32 
  253000     297.4486   -124.43608    459259.96   -145184.38    26154.928    24447.971    560700.42   -145205.04 
  253250    301.79895   -127.39096    458861.84      -145213    26537.458    24441.965    560661.63   -145234.81 
  253500    298.14368    162.69995    458641.79   -144910.27    26216.046    24928.226    560494.54   -144932.43 
  253750    301.90524   -175.90808    461155.36   -145255.06    26546.804    24512.361     560568.7   -145282.14 
  254000    298.98606   0.11265249    461578.51   -144846.75    26290.118    24795.519    560665.99    -144876.9 
  254250      299.506    201.88242    459809.15   -144982.45    26335.837    25075.455    560278.96   -145010.88 
  254500    300.22033   -138.50291    461503.63    -145329.8    26398.649    24642.331    560374.86   -145352.42 
  254750     300.8528     168.1608    459754.52   -144848.49    26454.263    24959.486    560520.98   -144874.64 
  255000    302.39714   -32.893623    460020.94   -145056.38    26590.057    24615.172    560644.52   -145080.22 
  255250    301.33339    23.610466    459079.73    -145129.4    26496.521    24702.641    560498.31   -145150.95 
  255500    299.22643   -135.00684    460456.06   -144634.79    26311.254    24294.686    561380.08   -144657.74 
  255750    298.14972   -104.17722    460823.65   -144741.96    26216.578    24442.068    561140.42   -144762.18 
  256000     298.2997    33.608839    459732.42   -144742.45    26229.766    24604.396    560964.66    -144768.2 
  256250    297.20443    85.583601    460810.01   -144805.71    26133.458    24877.393    560640.85   -144830.03 
  256500    301.47714   -53.564003    460496.31   -144844.32    26509.161    24493.565    560998.46   -144869.72 
  256750    300.09027   -94.005623    459649.38   -144974.77    26387.212    24463.788    560893.46   -145000.92 
  257000    301.61748   -24.582833    459505.55   -144733.63    26521.501    24485.479    561106.74   -144757.65 
  257250    298.88387   -56.818479    459471.48   -145373.69    26281.132    24686.189     560275.4   -145397.99 
  257500    300.91753    10.856252    460056.28   -144885.13    26459.954    24586.146    560865.52   -144908.89 
  257750    300.18817    21.765984    460850.83   -144985.48     26395.82     24803.25    560539.52   -145014.33 
  258000    299.31575   -56.549143    461253.24    -144906.3    26319.108    24600.709    560816.71   -144938.58 
  258250    299.63097    45.732216    461001.73   -144918.55    26346.825    24829.541    560569.78   -144947.28 
  258500    298.01636    22.403203     459408.9   -145166.38    26204.851    24787.054    560351.96   -145197.15 
  258750    298.91296   -70.521708    460936.84   -144883.55     26283.69    24482.899    560993.67   -144910.77 
  259000    303.28303    35.422434    460996.11   -144700.56    26667.955    24685.885    560942.07   -144730.88 
  259250    299.39497   -83.742593    461867.61   -145058.56    26326.074     24687.81    560601.42   -145081.09 
  259500    299.68942    127.66054    459877.18    -145068.5    26351.965    24950.984    560305.59   -145095.15 
  259750     301.9821    -59.60255     461448.3   -145325.77    26553.562    24757.976    560235.03   -145355.35 
  260000    303.17885    160.78144    459078.95   -145262.09    26658.794    25005.192    560066.14   -145289.15 
  260250    300.05219   -98.360726    460124.76   -144792.61    26383.864    24470.214    561047.85   -144822.57 
  260500    298.83001    191.23228    459564.26   -144834.54    26276.397    25029.534    560439.22   -144863.55 
  260750    298.91635   -30.321798    460984.17   -144954.93    26283.988    24746.457    560637.57   -144984.66 
  261000    297.88572    96.364316    459643.49   -145090.07    26193.364    24938.437    560285.63   -145118.88 
  261250    299.18977    -55.81412    459143.89   -145127.15     26308.03    24605.817    560588.15   -145163.75 
  261500    296.98419    14.674009    458151.92   -145146.88    26114.092    24720.966     560467.4   -145179.29 
  261750    296.43511   -154.47526    460860.43   -144987.48    26065.811    24505.349    560831.67   -145017.33 
  262000    303.03529   -37.460501    460895.37   -145119.54    26646.171    24769.453    560441.84   -145153.75 
  262250     300.3326    177.44607    460125.45    -144932.2    26408.521    25043.247    560341.36   -144960.42 
  262500    298.96368   -75.418687    461251.04   -145065.18    26288.151    24647.377    560605.14    -145096.9 
  262750    299.31298   -82.611417    460481.35   -145260.49    26318.864    24680.608    560392.95   -145298.63 
  263000    298.67464    87.082377    458979.91   -145081.97    26262.735    24928.862    560304.28   -145116.15 
  263250    301.25938   -7.6440689    458715.21   -145093.59    26490.013    24646.229    560603.47   -145119.27 
  263500    301.88383   -49.142483    459001.98   -145146.17    26544.922    24572.216    560594.78   -145176.58 
  263750     300.6835    38.155303    460134.22   -144737.46    26439.375    24649.041    560959.22   -144765.03 
  264000    298.81443   -98.837693    459593.43   -145343.87    26275.027    24673.401    560283.27    -145380.1 
  264250    301.44101    99.131197    458698.96   -145164.02    26505.984    24754.712    560407.27   -145200.23 
  264500    300.17488   -91.169937    459267.12   -145168.51    26394.652    24524.942    560627.08   -145188.91 
  264750     300.7558   0.45052359    459535.41   -144792.96    26445.733    24591.488    560934.58   -144825.45 
  265000    300.33041   -10.982229    461351.22   -144936.12    26408.328    24688.026    560707.34   -144963.18 
  265250      300.196    168.60634    461265.45   -145045.89    26396.509    25176.391    560106.62   -145068.18 
  265500    298.83156    115.77681     461724.3   -144542.11    26276.533    24844.689    560940.16   -144566.57 
  265750     296.2272    37.890746    460524.86   -144989.84    26047.529    24903.515    560421.91   -145016.99 
  266000    299.61217    9.7909726     458344.8   -144928.54    26345.172    24611.892    560782.84   -144955.23 
  266250    300.28135   -92.135015    459888.08   -145075.63    26404.014    24546.946    560710.33    -145105.6 
  266500    296.26989     228.2441    459403.79   -145053.91    26051.283     25158.78    560119.75   -145084.05 
  266750    299.27408   -48.374259    462034.48   -144797.46    26315.444    24624.748    560895.36   -144819.99 
  267000    301.35171    92.564764    460287.99   -144738.03    26498.132    24808.438    560764.21   -144769.38 
  267250     301.2358    44.414251    459988.81   -144836.55     26487.94    24665.005    560803.94   -144866.94 
  267500    302.24961   -69.102853    462213.42    -144928.3    26577.085    24676.325       560715   -144961.83 
  267750    299.35171     61.59854    460733.29   -144681.82     26322.27    24745.711    560904.26   -144707.57 
  268000    301.92743   -191.19532    460832.94   -144683.44    26548.755    24261.841    561386.58   -144710.31 
  268250     299.3137    178.98139    460327.76   -145289.25    26318.927    25210.035    559827.46   -145311.21 
  268500    302.04882    -58.82775    459970.74   -144992.84    26559.429    24542.462    560785.13   -145018.21 
  268750    298.73594   -69.766454    460017.17   -145270.68    26268.125    24674.174    560384.27   -145293.82 
  269000    299.45166    -289.7846    461444.98    -144965.9    26331.059    24247.416    561133.01   -144990.16 
  269250    302.08785    143.68507    457193.94   -145419.69    26562.862     24944.35    559978.33   -145441.38 
  269500    298.92121   -82.706347    460052.06   -145084.77    26284.416    24621.716    560632.39    -145108.1 
  269750    298.49043   -68.506262    460173.86   -145201.65    26246.537    24750.748    560386.47   -145223.33 
  270000    299.81983   -58.785475    461347.97   -144899.64    26363.432    24614.897    560809.42   -144925.84 
  270250    302.50029   -96.853255    461035.55   -144874.04    26599.128     24513.48    560945.51   -144899.75 
  270500    298.01529    41.296669    459235.03   -145138.46    26204.757    24756.016    560417.86   -145164.43 
  270750    298.70091   -98.669967    460732.01   -145105.07    26265.044    24569.563    560651.08   -145132.99 
  271000    297.46286     39.57154    459927.48   -144966.83    26156.182    24733.481    560631.13   -144994.36 
  271250    298.86597   -98.561491    459796.94   -145222.67    26279.558    24618.461    560494.31   -145250.96 
  271500     300.1447    35.563035    459359.73   -145141.53    26391.998    24788.102    560396.08   -145167.06 
  271750    297.37303   -95.266472    459868.42   -145305.82    26148.283    24668.745    560375.66   -145331.25 
  272000    298.59534    111.48173    458895.06   -144867.16    26255.761    24794.466    560672.41   -144891.77 
  272250    299.66639    51.175537     458343.6   -144918.98     26349.94    24674.624    560740.02   -144946.28 
  272500    300.76577    5.3003677    460566.04   -144551.26     26446.61    24489.082    561309.51   -144572.56 
  272750    301.86706   -15.075686    461331.37   -144734.99    26543.447    24659.773    560926.24   -144758.92 
  273000    302.00412     318.4001    458386.19   -144809.37    26555.499    25199.101    560332.41   -144824.58 
  273250    298.92091    18.493604    461049.89   -144896.34    26284.389    24759.164    560685.63   -144918.78 
  273500    301.18268   -56.929883     459709.7   -144907.27    26483.269    24419.228    561009.15   -144934.86 
  273750    300.39487   -109.50236    458868.49   -145071.64    26413.996     24414.93    560851.58   -145094.79 
  274000    302.30465    87.535627    459526.52   -145089.17    26581.924    24912.077     560337.1   -145115.71 
  274250    299.65418   -83.404885    460485.14   -145164.89    26348.866    24590.292    560575.85   -145189.59 
  274500     300.6233    33.548974    460490.91    -144867.8    26434.082    24795.056    560681.33   -144885.92 
  274750    297.89834   -34.180836    460395.22    -145293.3    26194.474    24828.369    560213.13    -145324.4 
  275000    299.70537    49.350071    458882.02   -145347.21    26353.368    24928.564    560049.53   -145368.23 
  275250    299.67246   -78.813673    459646.32   -145130.59    26350.474    24586.384    560588.64    -145153.7 
  275500    298.33507   -99.572467    461000.74   -145296.37    26232.876    24743.874    560302.24   -145321.57 
  275750     301.1765     38.98093    461191.06   -144986.39    26482.726    24860.959    560493.08   -145014.55 
  276000    300.57348   -101.59432    461501.48   -144881.87    26429.701    24497.361    560966.75    -144909.4 
  276250    297.10475   -56.675844    460154.65    -144765.8    26124.693     24543.43    561018.11   -144792.19 
  276500    300.62072   -35.884648    460691.57   -144589.29    26433.855    24496.414    561236.33   -144614.28 
  276750    301.28459    197.65439    458904.59    -144727.9     26492.23    24895.719    560700.09   -144756.49 
  277000    299.36865   -86.740674    461752.55   -144777.81     26323.76    24538.251    561000.08    -144804.3 
  277250    298.83468   -22.737769    461119.02   -145028.87    26276.807    24775.568    560499.06   -145052.25 
  277500    299.74959    19.171179     460219.2   -145232.16    26357.256    24843.731    560243.92   -145263.97 
  277750    300.36505    117.61962    462007.23    -144854.7    26411.374    24973.134    560503.25   -144877.75 
  278000    301.02965   -63.153788    461007.03   -145068.15    26469.813    24688.783    560585.85   -145098.05 
  278250    299.71636   -69.864419    459049.99    -145488.9    26354.334    24725.367    560119.05   -145511.91 
  278500    301.46816    181.37273    458242.69   -145120.43    26508.371    24959.687    560242.84    -145143.1 
  278750    300.05717     71.21202    459887.41   -145036.89    26384.302     24827.35     560447.4   -145066.05 
  279000    298.82875   -86.128406    461266.71   -144569.84    26276.286    24388.414     561368.2   -144592.79 
  279250    300.59356   -134.21812    459505.48   -144892.97    26431.467    24411.757     561033.9   -144919.44 
  279500     299.3749    33.117778    461144.18   -144937.06    26324.309    24843.474    560569.85   -144961.84 
  279750     298.8189    23.187822    460082.05   -144881.26    26275.419    24741.248     560716.1    -144906.6 
  280000    302.27945     120.7735    459183.95   -145136.93    26579.709    24896.354    560282.81   -145166.86 
  280250    299.53454    30.087566    458719.62   -145018.86    26338.346     24645.06     560670.6   -145039.58 
  280500     299.4147    -1.905783    459655.77   -144860.73    26327.809    24676.585    560787.81    -144887.7 
  280750    301.22583    16.472836    458978.78   -145093.07    26487.063    24701.683    560540.73   -145121.66 
  281000    301.52885   -106.65142    458786.42   -145112.31    26513.708    24442.036    560760.88   -145145.29 
  281250    299.45085    27.364833    458886.33   -145070.21    26330.988    24677.708    560588.26   -145102.35 
  281500    301.53153    288.79399    460204.34   -145011.78    26513.943    25251.482    560067.44   -145039.17 
  281750    300.71432    35.899913    460782.64   -144838.94    26442.085    24796.075    560682.16   -144866.45 
  282000    299.32744    124.97825    461465.89   -144932.83    26320.135    25007.173    560406.64   -144960.15 
  282250    299.62783    30.999749    461081.24   -144933.55     26346.55    24898.205    560501.99   -144963.95 
  282500    298.33905   -53.454826    460294.52   -145284.69    26233.226    24753.872    560275.56   -145315.89 
  282750    299.76488   -85.690593    460933.57   -145258.22      26358.6    24675.287    560379.56   -145284.12 
  283000    300.13095   -114.83715    460897.91   -145026.98    26390.789    24544.545    560766.44   -145058.91 
  283250    301.69763    77.342739    459679.05   -145215.96    26528.549    24982.168    560138.75   -145246.24 
  283500    297.07024   -87.593425    460460.45   -145076.24    26121.658    24651.623    560602.23   -145103.08 
  283750    298.92839    23.144909    459905.53    -144913.5    26285.047    24790.985    560618.14   -144939.58 
  284000    303.03008   -123.12356    459940.19   -145048.72    26645.713     24477.95    560818.41   -145076.43 
  284250    300.04395    68.868425    460092.18   -145156.58    26383.139    24916.354    560233.32   -145190.38 
  284500    298.85736    84.447558    459554.74   -145089.11    26278.801    24868.262    560361.57   -145118.01 
  284750    300.22738    62.058835    460550.61   -145002.83    26399.269     24886.04    560442.76   -145031.06 
  285000    301.82885   -19.912887    460132.39   -145022.69    26540.087    24639.759    560678.44   -145054.86 
  285250    300.19088   -94.236309    460724.74   -145102.86    26396.059    24595.389    560629.08   -145140.46 
  285500    298.89646    39.924969    460464.03   -145178.75    26282.239    24918.486    560220.11    -145213.5 
  285750    297.83388    167.32993    459235.26   -145037.98    26188.806    24984.459    560296.18   -145071.44 
  286000    301.00822    35.494386    458130.65   -145248.63    26467.928    24705.503     560377.5   -145278.63 
  286250    301.37578   -16.198966     458890.4   -144983.89    26500.248    24565.506     560766.7   -145018.04 
  286500    300.71798   -100.20034    459814.73   -144621.87    26442.407    24385.643    561302.27   -144655.09 
  286750    299.58469    31.984867    459466.64   -144695.08    26342.756    24646.761    560987.06   -144724.47 
  287000    302.88146   -79.798771    461898.78   -144304.87    26632.644    24393.828    561632.87   -144333.69 
  287250    299.33231   -38.440781    461943.64   -144957.06    26320.564     24747.16    560624.37   -144988.32 
  287500    301.66201    262.90828    460631.24   -144826.41    26525.417    25194.152    560304.38   -144853.04 
  287750    302.58421    110.79682    460923.69   -144878.12    26606.507    24935.605    560511.24   -144913.43 
  288000    299.55974    10.816491    461387.93   -144741.26    26340.562    24723.247    560860.24   -144773.84 
  288250    301.42031    173.70561    459685.55   -144966.49    26504.164    24935.687     560419.3   -144993.06 
  288500    300.23098    32.771721    460454.05   -145053.43    26399.585    24872.604    560385.11   -145086.08 
  288750    299.86172    71.554539    459922.96   -145413.68    26367.115    24970.027    559952.35   -145442.32 
  289000    299.26761     18.28138    461000.88   -144677.64    26314.875     24615.58    561057.42   -144704.41 
  289250    300.57822    12.171554    461136.14   -145169.03    26430.118    24856.698    560282.81   -145200.91 
  289500    301.58181    151.30531    460334.84    -144688.5    26518.364    24919.614    560704.78   -144716.86 
  289750    298.99954    73.825535    461127.57   -144725.56    26291.304    24828.443    560755.37   -144760.44 
  290000    302.00236    60.794054    460092.41   -145111.68    26555.344    24868.518    560346.67   -145140.47 
  290250    298.28199    83.531491    460090.98   -145239.92    26228.208     24975.33    560103.67   -145271.65 
  290500    301.25067   -90.867543    460557.75   -145056.43    26489.247    24506.982    560753.75   -145081.23 
  290750    301.10991      44.8329    459343.41   -145074.99    26476.871    24737.279    560520.68   -145104.05 
  291000    298.48714    26.246055    461028.41   -145047.53    26246.248    24853.242    560428.42   -145073.24 
  291250    300.60909   -12.567815    460365.25   -144919.09    26432.833    24619.193    560792.03   -144944.43 
  291500    300.80237    189.95379    458952.87   -145242.06    26449.828    25019.272    560068.13   -145265.86 
  291750    297.74072   -34.115889     460199.6   -145004.65    26180.614    24634.702    560689.51   -145031.99 
  292000    300.74148   -32.288662    460889.97   -144861.52    26444.474    24637.985    560831.23    -144886.2 
  292250    299.15374     129.8976    459819.97    -144913.2    26304.862    24949.114    560472.62   -144936.93 
  292500    299.01161   -157.74498    459747.83   -144744.58    26292.365    24310.839    561278.71    -144772.2 
  292750    300.78708    39.181561    458622.47   -145130.79    26448.484    24731.834    560473.07   -145161.83 
  293000    298.50958    130.02923    458929.68   -144847.29     26248.22    24769.842    560698.53   -144875.34 
  293250    299.18286    14.063451    459869.92   -144990.23    26307.423    24773.082    560569.76   -145016.41 
  293500    299.85638    7.5772395    460237.19   -145095.22    26366.646    24855.148     560389.4   -145119.58 
  293750    299.08853    0.4545189    460157.97   -145043.87    26299.129    24744.307    560550.86   -145068.54 
  294000    301.73775   -34.236091    459585.94   -145051.55    26532.077    24510.328    560767.74   -145079.47 
  294250    301.87482    47.704879    460392.94   -144930.82    26544.129    24755.939    560649.61   -144958.43 
  294500    301.86915   -5.0106497    460763.41   -144816.83    26543.631    24679.403    560815.05   -144847.41 
  294750    297.69241   -1.7900504    459850.99   -145330.79    26176.366    24839.525    560156.47   -145356.47 
  295000    299.40046    61.364772     459784.7   -145013.23    26326.557    24828.222    560483.09   -145040.13 
  295250     299.7871     -37.4991     459868.6   -144980.03    26360.554     24633.15    560710.57   -145006.99 
  295500    301.25167   -18.978388    459187.05   -145101.38    26489.335     24720.77    560506.64   -145130.96 
  295750    300.25614   -103.34503    460140.24   -144910.52    26401.797    24522.308    560876.04   -144939.15 
  296000    300.97012    113.57596    461035.03   -144699.47    26464.578    24906.705    560706.16   -144730.08 
  296250    299.43737      89.6222    461499.76   -144588.12    26329.802    24834.268    560900.41   -144613.03 
  296500     303.9562    96.910593    460473.75   -145000.89    26727.147    24904.648    560411.57   -145035.39 
  296750    301.72825    113.75855    458993.68   -145256.13    26531.242    24953.868    560123.38   -145282.93 
  297000    302.93018    125.49963    458435.84   -145219.03    26636.928    24859.875    560241.14   -145247.12 
  297250    300.71883     -69.8992    460343.35   -144987.98    26442.482    24575.969    560763.84   -145018.66 
  297500    299.93733   -66.132576    458606.64   -145102.93    26373.764    24467.669    560761.84   -145129.93 
  297750    298.11753    22.100347    460342.89   -144949.22    26213.748    24779.191     560589.4   -144979.01 
  298000    298.07798   -99.972495    460002.87   -144908.76     26210.27    24443.625    560976.61   -144935.94 
  298250    298.32725   -11.883242    458317.48   -145286.04    26232.189    24755.313     560287.7   -145313.52 
  298500    300.86389    133.04568    459129.93   -145073.75    26455.238    24899.698    560348.96   -145097.52 
  298750    299.96151     -213.712    461364.95   -144467.81     26375.89     24155.89    561687.36   -144494.95 
  299000     300.7264    133.74843    458580.63   -144925.66    26443.147     24831.65    560578.85    -144952.1 
  299250    299.91777   -17.597012    460324.54   -145131.65    26372.044    24797.538    560417.61   -145156.82 
  299500    299.76458   -70.042419    461258.24   -144889.69    26358.574    24604.665    560834.93   -144911.46 
  299750    300.43544    93.806287    460489.21   -144977.96    26417.563    24923.207    560410.52    -145012.1 
  300000    300.12341   -102.88654    461731.16    -144849.6    26390.126    24542.829    560949.02   -144872.89 
  300250    298.42717    180.51403    459763.32   -145175.52    26240.974    25191.016    559964.93   -145198.09 
  300500    301.26745    105.01158    460492.75    -144960.6    26490.722    24846.535    560520.74   -144987.05 
  300750    299.76572    5.5785992    460278.27   -144896.87    26358.674    24730