LAMMPS (24 Apr 2013)
WARNING: OMP_NUM_THREADS environment is not set. (../comm.cpp:100)
  using 1 OpenMP thread(s) per MPI task
# ----------------- Init Section -----------------
units           real
atom_style      full
boundary	p p p
kspace_style	pppm 1.0e-4

# ----------------- Atom Definition Section -----------------
read_restart	confout-6.data
  orthogonal box = (14.8189 2.81728 2.81728) to (248.181 47.1827 47.1827)
  1 by 1 by 1 MPI processor grid
  44200 atoms
  29498 bonds
  14700 angles
  2 = max # of 1-2 neighbors
  2 = max # of 1-3 neighbors
  4 = max # of 1-4 neighbors
  6 = max # of special neighbors

# ----------------- Settings Section -----------------------

group 		spc		type	1 2
44100 atoms in group spc
group		p1_end_atom	id 	44150
1 atoms in group p1_end_atom
group		p2_end_atom	id 	44200
1 atoms in group p2_end_atom

# ----------------- Run Section -----------------
# Write initial structure out
dump            icrd all custom 5 system-7.lammpstrj id mol type x y z ix iy iz
dump_modify     icrd sort id
run             1
WARNING: No fixes defined, atoms won't move (../verlet.cpp:54)
PPPM initialization ...
  G vector (1/distance) = 0.263259
  grid = 90 25 25
  stencil order = 5
  estimated absolute RMS force accuracy = 0.0401529
  estimated relative force accuracy = 0.000120919
  using double precision FFTs
  3d grid and FFT values/proc = 97280 56250
Memory usage per processor = 118.819 Mbytes
Step Temp E_pair E_mol TotEng Press 
  650006    199.14549   -146149.85    31.382015   -119881.28    24380.584 
  650007    199.14549   -146149.85    31.382015   -119881.28    24380.584 
Loop time of 0.494968 on 1 procs (1 MPI x 1 OpenMP) for 1 steps with 44200 atoms

Pair  time (%) = 0.454885 (91.9019)
Bond  time (%) = 0.00332284 (0.671324)
Kspce time (%) = 0.035506 (7.1734)
Neigh time (%) = 0 (0)
Comm  time (%) = 0.000746012 (0.150719)
Outpt time (%) = 0.000247955 (0.0500952)
Other time (%) = 0.000260115 (0.0525518)

FFT time (% of Kspce) = 0.00816248 (22.989)
FFT Gflps 3d (1d only) = 1.50748 2.95664

Nlocal:    44200 ave 44200 max 44200 min
Histogram: 1 0 0 0 0 0 0 0 0 0
Nghost:    70524 ave 70524 max 70524 min
Histogram: 1 0 0 0 0 0 0 0 0 0
Neighs:    1.46362e+07 ave 1.46362e+07 max 1.46362e+07 min
Histogram: 1 0 0 0 0 0 0 0 0 0

Total # of neighbors = 14636221
Ave neighs/atom = 331.136
Ave special neighs/atom = 2.00851
Neighbor list builds = 0
Dangerous builds = 0

# Reset the timestep
undump          icrd

# Timestep and Neighbour searching
timestep	2.0
neighbor        2.0 bin
neigh_modify	delay 4 every 1 check yes

# Fixes
#fix 		pull1 p1_end_atom addforce  1.0 0.0 0.0
#fix 		pull2 p2_end_atom addforce -1.0 0.0 0.0
fix 		shake spc shake 0.0001 10 0 b 1 a 1
  0 = # of size 2 clusters
  0 = # of size 3 clusters
  0 = # of size 4 clusters
  14700 = # of frozen angles
fix   		npt all npt temp 300.0 300.0 100.0 iso 1.0 1.0 1000.0

# Initial velocity
#velocity		all create 300 432567 dist uniform

# Write out thermodynamic information
thermo_style    custom step temp press vol pe ke evdwl ecoul epair
thermo	        250

# Write out trajectory
dump            cxtc all xtc 250 traj-7.xtc

# Write out velocity
#dump 		1 all custom 1 vel_npt.txt vx vy vz

# Checkpoint files
restart         5000 state_cpt-*.data

# Final run command
run             1000000
PPPM initialization ...
  G vector (1/distance) = 0.263259
  grid = 90 25 25
  stencil order = 5
  estimated absolute RMS force accuracy = 0.0401529
  estimated relative force accuracy = 0.000120919
  using double precision FFTs
  3d grid and FFT values/proc = 97280 56250
Memory usage per processor = 125.958 Mbytes
Step Temp Press Volume PotEng KinEng E_vdwl E_coul E_pair 
  650007    298.38406   -22.984217    459324.95   -146118.46    26237.184    25034.409    559577.57   -146149.85 
  650250    298.82184      46.6133    460251.24   -145890.82    26275.678    25093.773    559774.12   -145918.96 
  650500    300.88455    43.114079     460087.9   -145917.04    26457.054    25132.054    559691.15   -145948.85 
  650750    299.64952    50.375387    459039.07   -145892.71    26348.457    25082.815    559763.63   -145921.82 
  651000    301.56971     190.2325    460908.31   -146353.98    26517.301    25622.302    558756.89      -146385 
  651250    301.00259    -84.87153    461364.67    -145726.9    26467.433    24897.361    560086.76   -145749.62 
  651500    300.40902    151.22634    457876.52   -146250.62     26415.24    25359.369    559130.82   -146276.67 
  651750    301.58447    61.705128    459969.83   -145829.27    26518.598    25214.357    559681.83   -145860.31 
  652000    297.57593    104.98209    459207.01   -145971.59    26166.124    25225.137    559539.56   -145998.52 
  652250    297.31455   -87.339944    460530.59   -145805.35     26143.14    24767.184    560147.73   -145834.44 
  652500     297.7863   -35.510094    459558.73   -146100.08    26184.622    24977.649     559659.9    -146131.4 
  652750    300.78282   -74.627618     459840.8   -145949.81    26448.109    24881.601    559918.35   -145976.57 
  653000    300.47758    78.323781    458471.33   -146049.51    26421.269    25064.953    559635.12   -146081.79 
  653250    299.78815    17.174516    461641.88      -145676    26360.647    25108.581    559930.82   -145701.87 
  653500    301.61721    -118.8158    460788.02   -145712.22    26521.478    24779.849    560230.59   -145737.81 
  653750    302.56905    36.627951     458154.1   -145849.07    26605.174     24893.33    559979.36   -145875.66 
  654000    299.93367     32.66604     458454.6   -146021.14    26373.442     25002.55    559690.47   -146055.33 
  654250    299.92832   -138.43341    459386.85   -146163.76    26372.971    24818.824    559752.33    -146195.1 
  654500      298.331   -6.8670544    459776.26   -145756.68    26232.518    24953.224    560010.52   -145782.34 
  654750    298.62244   -77.401409    460623.56    -145864.6    26258.145    24892.496    559967.17   -145892.02 
  655000    300.15518   -90.737854    460419.13   -146230.77    26392.919    24991.827    559512.54   -146255.69 
  655250    298.61971    38.154783    460676.46   -145952.29    26257.904    25226.919    559563.44    -145980.8 
  655500    299.55051    106.46991    459543.06   -145830.82    26339.751    25222.086    559672.92   -145861.45 
  655750     302.3505    128.34114    458456.16   -146007.06    26585.957     25256.45    559463.25   -146031.83 
  656000     300.9061    -106.5542    459195.97   -145854.88    26458.949    24758.518    560094.85    -145884.3 
  656250    300.57376    60.682051    457573.18   -145932.93    26429.726    24950.447    559841.36   -145960.26 
  656500    299.55411   -120.91937    457727.75   -145902.64    26340.067     24679.75    560143.17   -145927.34 
  656750    299.20041   -131.59076    459102.52   -145948.26    26308.966    24708.205    560073.24   -145978.75 
  657000    299.52682    75.345842    457766.95   -146287.59    26337.668    25214.054    559242.84   -146310.77 
  657250    298.57595    3.1111036    458541.34   -146086.48    26254.057    25061.053    559595.37   -146111.18 
  657500    300.70926    242.88447    456505.18   -146199.33    26441.641    25417.908    559124.99   -146230.28 
  657750    299.00639   -46.814001    460209.62   -145950.41    26291.906    24981.458    559802.72   -145972.65 
  658000    300.02847   -113.96125    461085.49   -145692.09    26381.778    24828.726    560195.11   -145718.86 
  658250    301.65771    3.5605515    459645.36   -146291.03    26525.038    25177.355    559276.51   -146320.99 
  658500    298.05011    9.3952873    459585.13   -145601.24    26207.819    24936.729    560183.77   -145630.13 
  658750    300.93522   -102.47665    458919.86    -146159.6     26461.51    24901.293    559680.66   -146183.03 
  659000    302.15096    20.410478    457376.11   -146126.42     26568.41    25009.733     559591.6   -146153.81 
  659250    301.47328   -75.135179    459730.97   -145873.43    26508.822    24826.836    560046.93    -145903.3 
  659500    299.76087    -94.60206    459797.33   -145855.77    26358.248    24769.883    560117.81   -145878.29 
  659750    300.37245    36.746945    456871.15   -146040.28    26412.024    24978.489    559713.76   -146065.64 
  660000    300.41349   -67.498691    458544.94   -145844.03    26415.633    24760.886    560118.66    -145866.2 
  660250    300.65641     -45.3729    460474.28   -145786.49    26436.994    24982.444     559958.9   -145814.05 
  660500     299.7657     28.07378    459471.26   -146040.96    26358.673    25139.866     559542.3   -146068.62 
  660750    303.00067   -86.980066    459956.95   -145994.33    26643.126    24853.097    559890.58    -146023.1 
  661000    298.95717    17.865101    459671.65   -146186.04    26287.578    25145.839    559412.26   -146215.73 
  661250    297.56482   -60.999669    460981.24   -145621.87    26165.147    24844.146    560268.06    -145648.5 
  661500    299.66076     84.76593    459297.75   -146003.95    26349.445    25268.786    559473.62   -146029.45 
  661750    299.17401    31.935487    458320.86   -145908.42    26306.644    25035.227    559774.76   -145939.07 
  662000    300.68962   -5.2086699    459067.55   -145996.69    26439.914    25025.841     559713.8   -146019.33 
  662250    299.87931    -136.9159     460827.8   -145717.81    26368.662    24792.158    560209.97   -145743.96 
  662500    300.98382   -12.853696    460369.33   -145718.54    26465.783    24906.857    560112.28   -145741.48 
  662750    301.86368    111.63526    457432.46   -145870.19     26543.15    25044.421    559824.71   -145897.72 
  663000    300.73023    74.883719    458187.89   -145925.92    26443.485    25090.767     559717.6   -145957.33 
  663250    299.28639    25.904393     459754.9   -145784.74    26316.526    24983.969     559962.5   -145815.04 
  663500    299.33821   -95.514278    459461.59   -146046.83    26321.083    24818.574    559859.42   -146071.59 
  663750    300.88459   -140.55478    459569.37   -145701.78    26457.058    24565.728    560456.64   -145727.55 
  664000    301.05971    149.55132    458117.35   -145870.23    26472.456    25140.759    559730.19   -145900.83 
  664250    301.72493   -164.41777    460508.74   -145935.93    26530.949    24737.321    560062.79   -145966.57 
  664500    300.78404    94.941994    457699.99   -146046.77    26448.216    25046.406    559615.85   -146084.84 
  664750    299.23935   -200.63826    458506.52   -145925.29     26312.39    24574.289    560219.62   -145953.93 
  665000    302.49839    -61.54074    460460.09   -145585.58    26598.961    24708.233    560423.99   -145617.22 
  665250    300.28885     125.4127    459827.23   -145609.61    26404.674    25165.073    559955.93   -145640.32 
  665500    300.39538    54.357094    459986.47   -145623.83    26414.041     25023.81    560084.37   -145654.73 
  665750     302.1194    67.432904    460102.44    -145563.2    26565.635    25033.117    560130.81   -145590.19 
  666000    301.77314     204.9391    458158.25   -146363.74    26535.189    25536.215    558839.21   -146389.23 
  666250    302.30179   -41.882606    461616.58    -145764.2    26581.673    25000.812    559966.62   -145793.18 
  666500    301.26764    35.879336    459841.26   -145853.98    26490.739    25089.474    559771.16   -145881.09 
  666750    299.65216    65.865806    459309.59    -146049.9    26348.688    25181.758    559496.02   -146077.78 
  667000    301.49671   -125.50811    459071.15   -146006.29    26510.882    24693.082    560029.85   -146029.45 
  667250    300.87468    97.462896    457623.18   -146089.84    26456.186    25175.353    559469.47   -146112.77 
  667500    298.35136    89.874744     459353.3   -145923.23    26234.308     25239.44    559570.35   -145949.36 
  667750    299.86731    -129.5502     460262.9   -145901.08    26367.607    24817.617    560025.07   -145926.07 
  668000    301.50629   -11.608858    457807.64   -146228.63    26511.724    24989.183    559515.19   -146256.66 
  668250    298.40359   -39.240832    459692.02   -146033.15    26238.901    25109.735    559564.39    -146060.2 
  668500    302.53832    43.121522    460169.21    -145947.9    26602.472    25107.204     559667.2   -145975.26 
  668750    301.72001    35.540394    460606.11   -145981.03    26530.517    25185.984    559578.21   -146008.96 
  669000    300.76376    85.490338    460237.89   -146114.71    26446.433        25315    559289.93   -146144.58 
  669250    298.12386    17.986712    459733.05   -145812.66    26214.304    24940.941    559983.64   -145838.76 
  669500     300.6106   -79.549523    458629.86   -146054.21    26432.966     24865.47    559811.62   -146082.18 
  669750    296.60814    41.374668    459085.91   -145923.38    26081.025    25130.501    559695.91   -145946.73 
  670000    299.44872    59.787481    460910.62    -145520.7      26330.8    25063.316    560142.75   -145548.46 
  670250    304.24246    21.419984    459797.13   -145818.05    26752.318    24993.906    559932.85   -145841.89 
  670500    299.53565   -45.555275    459448.44   -145726.14    26338.444    24836.236    560160.17   -145753.46 
  670750    300.62621    213.63601    458438.57   -145961.95    26434.338    25317.416    559449.23   -145993.49 
  671000    297.78286   -168.87119    460920.76   -145632.95     26184.32    24639.964     560451.4   -145659.97 
  671250    297.97871   -114.80419    459205.33   -146088.13    26201.541     24847.14    559788.68   -146116.68 
  671500    302.24701    19.216781     457983.1   -145786.12    26576.857    24853.573    560093.81   -145814.14 
  671750    302.54602   -158.57185    460200.32   -146225.03    26603.148    24882.844    559618.17   -146252.13 
  672000    299.91993    23.280267    459994.46   -146005.13    26372.234    25175.622    559554.51   -146035.74 
  672250    300.34782   -66.125614    460167.08   -145703.19    26409.859    24759.515    560281.27   -145731.65 
  672500    299.72993   -38.097397    460022.04   -145853.27    26355.527    24951.213    559927.78   -145883.07 
  672750    297.62175    24.998389    460155.19   -145937.19    26170.153    25146.048    559647.46    -145962.6 
  673000    300.31285    32.984659    458563.72   -146017.54    26406.784     25027.41     559681.4   -146039.77 
  673250    298.60945    -91.18356    460848.43   -145709.94    26257.002    24823.388    560197.17   -145733.25 
  673500     299.0934   0.76150303    459205.16   -146144.58    26299.557    25095.976    559497.18   -146169.91 
  673750    300.47112   -29.473298    458906.51   -145926.21    26420.701    24905.355    559897.98   -145959.36 
  674000    300.50488   -11.806177    457106.08    -145876.9     26423.67    24789.958    560076.44   -145908.16 
  674250     299.8762   -39.449429    457574.24   -146027.28    26368.389    24899.332    559802.41   -146054.34 
  674500    301.40776    121.67342    458193.31   -145908.36     26503.06    25145.584    559687.37   -145937.39 
  674750      300.618    151.57244    457849.13   -146045.32    26433.616    25289.664    559389.85   -146075.81 
  675000    301.41349    145.70699    458199.88      -145900    26503.564    25250.783    559580.29   -145928.39 
  675250    299.25806    191.34124    458252.68   -145876.37    26314.035    25375.168    559487.51   -145900.97 
  675500    298.28976    57.222013    458492.79   -145957.16    26228.892    25042.075    559742.18   -145980.41 
  675750    301.02059   -322.62251    460003.39   -146055.18    26469.016    24420.342    560256.45   -146084.04 
  676000    297.84858   -87.924016    457150.13   -146593.31    26190.098    24953.259    559200.02   -146617.62 
  676250     300.4195    70.632476    458431.21    -145908.8    26416.161    25052.455    559796.26   -145933.36 
  676500    301.61774   -72.020354    460027.15   -145675.17    26521.524    24759.516    560277.54   -145705.96 
  676750    300.39538   -50.447328    459557.26   -145944.18     26414.04    24906.094    559885.47   -145973.49 
  677000    300.45347   -38.322497    458925.02   -146235.19    26419.149    25071.815    559421.89   -146264.91 
  677250    299.50339     9.645354    459830.71   -145925.79    26335.607    25052.275    559747.31   -145951.01 
  677500    299.97194    60.448357    460239.55   -145513.81    26376.808    25006.812    560207.76   -145541.37 
  677750    301.31325   -34.756236    459832.15   -145952.07     26494.75     24886.12    559898.75   -145980.53 
  678000    301.40946    12.724241    458858.45    -145806.6     26503.21     24900.05    560008.44   -145831.51 
  678250    301.57862   -1.2823116    457473.52   -146233.59    26518.084    25006.968    559490.06   -146264.06 
  678500    298.94232   -156.47568    458397.55   -146229.81    26286.272    24777.496    559729.33   -146256.17 
  678750    298.08467   -165.56068    459954.98   -145839.19    26210.858    24771.459    560135.12   -145864.37 
  679000    300.93805    134.00733    458848.86   -145819.04    26461.758    25179.397    559729.69   -145849.01 
  679250    300.62274    65.429295    459223.95   -145868.15    26434.033    25127.197    559721.54   -145893.81 
  679500    300.06953   -44.526499    459134.95   -145775.21    26385.389    24808.152    560135.69   -145805.88 
  679750    302.38392    31.878976    458633.25   -145901.54    26588.895    24945.507     559878.9    -145927.6 
  680000    301.05547    140.90989    458111.57   -145738.14    26472.083    25060.288    559914.94   -145761.74 
  680250    300.21393    101.54207    459012.04   -145721.51    26398.086    25076.012    559933.24   -145744.97 
  680500    301.88169   -49.193939    458977.45   -146062.15    26544.733    24915.382    559759.62   -146084.94 
  680750    300.61426    43.345188    458041.46   -145909.24    26433.287    25013.144    559799.76      -145935 
  681000    299.35497   -19.013585    460171.89   -146229.02    26322.556    25176.029    559335.56   -146259.75 
  681250    301.77041   -11.013271    459402.63   -146309.95    26534.949    25154.914    559251.76   -146337.34 
  681500    302.67707   -253.04062    460208.03    -146178.7    26614.672    24643.565    559917.12   -146202.59 
  681750     299.1732    63.185465    459489.81   -146095.13    26306.573    25217.888    559416.35   -146124.35 
  682000    296.94921   -177.90925    459125.63   -145897.99    26111.016     24647.19    560188.27   -145928.97 
  682250    297.81598    67.070559    457703.61   -146081.25    26187.232    25090.697     559573.7   -146104.76 
  682500    302.23403    77.541306    458687.98   -146242.23    26575.715    25227.268    559270.32   -146272.59 
  682750     300.7115   -110.04573    460495.69   -145812.46    26441.838    24834.486    560097.03   -145839.51 
  683000    298.57254    35.017683    459421.24   -145629.32    26253.757    25071.144    560038.43   -145658.29 
  683250    299.67856   -117.82425    459899.23   -145841.55     26351.01    24778.674     560119.7   -145864.28 
  683500    297.62506   -53.709691    458034.35   -145917.95    26170.444    24840.023    559976.35   -145948.83 
  683750    298.84497    29.679926    457852.57    -146070.2    26277.712    25005.783    559669.34    -146099.7 
  684000     301.6583   -45.289455    458065.17   -145812.28     26525.09    24717.158    560209.18   -145838.78 
  684250     301.0595   -126.19594     459264.8   -145672.16    26472.438     24637.16    560409.52   -145702.91 
  684500    299.05355    60.305011    458133.05   -145943.44    26296.053    25002.318    559781.99      -145975 
  684750    299.69271   -17.912691    459868.06   -145797.02    26352.254    24918.242    560022.15   -145829.57 
  685000    296.49981    107.18705    459233.94   -146134.08      26071.5    25305.746    559276.52   -146168.78 
  685250    299.62343   -28.454959    459693.27   -145767.53    26346.162    24925.586    560055.57   -145798.06 
  685500    300.83872   0.45564086    459054.51   -146096.13    26453.024    25032.094     559605.5   -146125.72 
  685750    300.15641    45.112687    457975.45   -146105.78    26393.028    25073.775     559560.1    -146135.7 
  686000    298.47341   -70.788534    459239.48   -145916.76    26245.041    24878.512    559912.34   -145949.69 
  686250    301.83563   -75.501146    460456.29   -145683.84    26540.683    24792.258    560245.11   -145714.64 
  686500    297.07225   -3.9855868    460646.62   -146070.15    26121.835    25212.819    559452.96   -146098.52 
  686750    300.00482    69.113325    459543.99   -146231.11    26379.698     25320.22    559192.26   -146262.67 
  687000    299.41061   -72.894337    460692.62   -145902.16    26327.449    24907.282    559930.03   -145928.93 
  687250    299.11191    112.84284    458976.51   -145824.48    26301.184    25201.568    559692.52   -145854.82 
  687500    298.22208   -85.612514    458910.49    -146010.9     26222.94    24860.658    559858.61   -146043.51 
  687750    298.49298   -39.847267    459490.97   -146270.13    26246.761    25118.741    559352.14   -146301.31 
  688000    300.38527    -226.4059    459342.24   -145846.71    26413.152    24458.013    560430.73   -145879.75 
  688250    297.77121   -3.2127083    459543.85   -145708.47    26183.295    24945.663    560065.81   -145743.92 
  688500    300.19576   -65.560802    458917.65   -146186.45    26396.488    24906.204    559656.32   -146221.02 
  688750    297.49369   -84.704151    459519.39   -145984.66    26158.893    24928.019    559815.24   -146020.97 
  689000    300.20621   -85.469364    459157.85   -145817.53    26397.407    24687.245    560211.68   -145856.94 
  689250     300.6727   -57.754151    458396.52   -146109.24    26438.425    24854.408    559774.19   -146133.32 
  689500    299.98221   -131.90692    459804.94   -146127.18    26377.711    24815.536    559781.82   -146162.03 
  689750    300.22387    90.875749       458866   -146296.18     26398.96    25324.935    559128.15   -146323.36 
  690000    300.91133    133.79065    458500.24   -146326.02    26459.409    25360.015    559035.44   -146360.55 
  690250    299.06721   -15.781188    459407.61   -145853.59    26297.253    24963.125    559922.04   -145878.77 
  690500    301.34046    102.27655    457507.54   -146225.09    26497.143    25182.866    559335.43   -146245.85 
  690750    298.76908     4.202773    460019.13   -146102.97    26271.039    25086.649    559542.17   -146134.81 
  691000    297.98982    105.95476    459091.71   -146112.31    26202.518     25334.15     559282.4   -146142.53 
  691250    299.52364   -110.24563    460486.93   -145950.85    26337.388    24843.183    559952.65   -145977.88 
  691500    300.89892    164.01774    458868.44   -146111.38    26458.318    25310.369    559325.34   -146140.12 
  691750    301.29596    -59.63711    460277.19   -145663.32     26493.23    24827.019    560251.45   -145683.48 
  692000    300.23812   -7.8973768    458631.54   -145863.61    26400.212    24859.804    560012.26   -145890.84 
  692250    301.85284    108.83647    458600.56   -146026.89    26542.197    25097.539     559609.6   -146051.42 
  692500    299.71611    81.230484    460438.33   -145861.02    26354.312    25197.587    559681.62   -145882.37 
  692750    304.10249    110.92836    459124.07   -145970.27     26740.01    25191.532    559570.35   -145994.77 
  693000    302.91612    43.230869    459965.96   -146041.29    26635.692    25076.063    559606.12   -146062.74 
  693250    301.04008    104.39967    459968.14   -145687.52     26470.73    25106.123    559948.22   -145713.52 
  693500    298.82524   -23.687911    459758.75   -146027.05    26275.977    25047.576    559659.88   -146051.77 
  693750    299.43259    99.150721    458068.98   -146097.58    26329.382    25198.986    559445.55   -146120.03 
  694000    299.37173    -55.84627     458293.8   -146021.83     26324.03    24858.765    559852.21   -146046.27 
  694250    298.97297    -8.557324    456697.62   -146135.36    26288.967    24841.728    559754.99   -146159.64 
  694500    301.98664    135.56633       458025   -145612.37    26553.962    25035.055       560086   -145633.32 
  694750    301.60543   -23.124792    458584.38   -145968.08    26520.442    24896.764    559865.29    -145990.9 
  695000    297.65662   -66.732419    459357.93   -146146.15     26173.22    24992.613    559598.04    -146168.1 
  695250      301.468   0.42943957    461086.61   -145793.73    26508.357    25038.094    559910.55   -145814.16 
  695500    298.25115   -19.528597    460576.77   -145539.59    26225.497    24949.708     560236.2   -145562.72 
  695750    300.28484     79.49122       459435   -145963.66    26404.321    25217.854    559544.11   -145990.63 
  696000    300.01432     122.1979     458328.9   -145575.19    26380.534    25089.706    560076.64   -145596.52 
  696250    298.14011    22.858632    459267.13   -145789.97    26215.733    24976.658    559977.36   -145809.68 
  696500    299.67179   -10.572511    460410.84   -145868.96    26350.415    25008.892    559857.55   -145893.38 
  696750    302.95445   -49.870749    460467.63    -145744.3    26639.062    24860.536    560128.08   -145771.36 
  697000    300.14863    66.091327    459257.26   -145969.18    26392.344    25130.493    559663.01   -145992.04 
  697250    299.61403   -97.695695    460616.01    -146020.5    26345.336    24950.716    559749.18   -146046.54 
  697500    300.85964    56.496848    458283.49   -145920.38    26454.864    25047.948    559770.38   -145943.69 
  697750    301.30985   -6.3249747    458573.14   -145891.22    26494.451    24912.844    559933.88    -145917.9 
  698000    300.22361   -129.58793    461440.76   -145789.85    26398.937      24852.4    560086.98   -145817.93 
  698250    298.58051    85.522197    459037.62   -145807.52    26254.458    25160.628    559772.68   -145830.01 
  698500    301.65541   -66.068917    458340.11   -145589.31    26524.836    24710.942    560424.72   -145616.77 
  698750    299.57595   -28.082925    459810.69   -145723.86    26341.987    24888.001    560121.03   -145751.78 
  699000    299.10114    55.759399    459521.43   -145635.41    26300.238    24980.323    560133.33   -145658.24 
  699250    299.12968   -15.118169    458442.71   -145980.31    26302.746    24950.408    559805.84   -146008.45 
  699500    298.45166   -194.37854    460379.71   -145651.58    26243.128    24553.657    560542.34   -145674.44 
  699750    300.76085    41.761667    458909.19   -145882.47    26446.177    25048.233    559793.01   -145907.07 
  700000    302.10815   -105.67671    459948.42   -146241.11    26564.646    24942.489    559552.24   -146265.29 
  700250    298.59353    2.7612657    460531.33   -145957.52    26255.603    25154.648    559629.15   -145979.59 
  700500    299.22338    11.332753    460018.58   -146096.75    26310.986    25121.165    559517.87   -146117.75 
  700750    300.54657   -108.14962    461569.31    -145751.9    26427.335     24846.44    560120.35   -145777.25 
  701000    299.21883   -11.418721    458774.93   -146260.18    26310.586    25064.496    559412.28   -146283.94 
  701250    300.04498   -41.272936    460294.78   -145658.55    26383.229    24912.123    560145.38    -145687.4 
  701500    300.96725   -3.7229606    458779.08   -145991.07    26464.326    25014.909    559714.98   -146020.52 
  701750    300.64747    87.153911    457635.78   -146158.28    26436.207    25222.194    559349.18   -146186.91 
  702000    299.09172     46.14294    457592.75    -145560.6    26299.409    24835.739    560317.87   -145593.82 
  702250    301.10638   -117.30557    459525.72   -145874.73     26476.56    24737.156    560117.97   -145907.11 
  702500    297.89117      171.593    459078.06   -145600.19    26193.843    25226.107    559870.67   -145633.15 
  702750    299.88327    81.907942    459413.52   -146100.09    26369.011    25246.553    559401.83   -146131.46 
  703000    298.19631   -229.67345    461409.55   -145677.43    26220.674    24620.968    560434.73   -145711.34 
  703250     300.4547   -44.851419    458506.47   -145895.46    26419.257    24848.614    559988.26   -145932.41 
  703500    298.11619   -165.90822    458315.44   -146108.51    26213.629    24642.268    559967.91   -146143.41 
  703750    298.13305   -154.23816    458719.76   -145952.38    26215.112    24628.809    560137.36   -145986.99 
  704000    299.24131   -84.640896    459560.82   -145948.42    26312.563    24823.353    559957.77   -145986.96 
  704250    299.43864     123.1989     460489.8   -145965.24    26329.914    25357.699    559396.16   -145994.31 
  704500    301.16562    93.170998    459467.14   -146018.46    26481.769    25236.822    559471.82   -146049.61 
  704750    301.08749    154.97925    459450.77   -145800.11    26474.898    25281.078    559651.26   -145837.94 
  705000    299.07528   -5.4291592    459728.28   -146009.18    26297.963    25083.158    559644.63   -146043.42 
  705250    299.99381    62.267613    458246.04   -145966.66    26378.731    25083.244    559687.34   -145994.35 
  705500    302.38163    -98.88728    460098.21   -146311.36    26588.693    25038.418    559386.88   -146341.98 
  705750    302.30674     15.32486    460880.17   -145860.94    26582.108    25207.302    559653.22   -145894.99 
  706000    299.79196    93.806226    458859.04    -145956.5    26360.982    25197.217    559577.59   -145986.46 
  706250     300.4458    24.521289    458553.11   -145847.43    26418.474    25040.881    559856.16   -145875.33 
  706500    301.46761   -65.481842    458947.58   -146066.22    26508.323    24937.165    559722.01   -146097.29 
  706750    299.79841    37.558706    457977.72   -146294.58    26361.549    25200.995    559244.36   -146323.08 
  707000     301.1078    58.494985    459198.28   -145921.66    26476.684    25165.036    559654.89   -145944.57 
  707250    300.18509    -12.47358    459471.04   -146089.47     26395.55    25055.377    559603.04   -146115.91 
  707500    303.30122    217.94585    458934.22   -145621.69    26669.554    25252.131    559836.15   -145646.72 
  707750    300.69066    3.2587911    460148.08   -145562.65    26440.005    24993.932    560166.38   -145593.95 
  708000    299.07118     68.57698    457803.44   -145798.87    26297.603     25002.78    559935.34    -145827.1 
  708250    301.04718   -41.929169    459319.13   -145954.03    26471.354    24938.184    559837.34   -145979.05 
  708500    298.45409   -47.799291    460630.07    -145964.5    26243.341    25073.224     559700.3   -145992.66 
  708750     302.5964    42.013261    459983.13   -145846.95    26607.578    25051.855    559824.09   -145875.61 
  709000    299.81914    73.468035    459462.22   -145938.61    26363.371    25178.271    559617.18   -145969.57 
  709250    298.40476   -37.386481    460406.12   -145848.24    26239.003    24891.799    559992.35   -145878.84 
  709500    299.42978    58.044678    459188.73   -146009.77    26329.135    25159.303     559560.8   -146045.91 
  709750    301.94064    40.770057    459375.21   -145859.16    26549.917    25043.345    559843.85   -145883.79 
  710000    299.12627     38.95575    458364.29   -146083.12    26302.447    25138.065    559526.78   -146116.82 
  710250    301.09266   -86.599015    458802.86   -145962.52    26475.354    24816.727    559941.89   -145997.93 
  710500    300.68227   -11.884463    459148.54   -146109.07    26439.267    25027.073    559588.82   -146140.25 
  710750    300.00668   -67.885181    458724.35   -146189.99    26379.862    24931.411    559595.73   -146225.14 
  711000    299.54633   -52.746222    458048.61   -146145.67    26339.383    24924.677    559661.93   -146178.83 
  711250    298.71334    35.658777    458890.44   -146260.78    26266.138    25168.583    559307.25   -146294.42 
  711500    300.25702   -119.09243    459742.47    -145760.5    26401.875    24726.094     560238.7   -145790.98 
  711750    301.59965   -39.552877    458324.02   -145914.89    26519.934    24780.268    560038.39   -145948.29 
  712000    300.68943   -95.703545    458988.46   -145845.56    26439.897    24826.857    560057.66   -145876.12 
  712250    297.64687    118.49111     458657.5   -146025.27    26172.362    25277.682    559428.78   -146053.06 
  712500    301.15904   -77.090314    459860.05   -145996.74     26481.19    24883.256    559860.61   -146027.61 
  712750    300.88627    125.38255    459431.13   -145754.56    26457.205    25191.966    559788.11   -145783.67 
  713000    301.55029   -90.456693    460254.84   -145939.32    26515.593     24878.37    559917.62   -145968.08 
  713250    302.08055   -81.298098    459891.35   -145961.83     26562.22    24789.472    559987.31   -145991.07 
  713500    301.02537    62.891427    460319.69   -145614.23    26469.437     25064.42    560062.49   -145642.19 
  713750    298.99393     154.6727    458863.32   -145753.66     26290.81    25191.033     559788.9   -145782.69 
  714000    300.10478   -80.459553    459956.89   -145673.02    26388.488    24748.623    560298.81   -145702.97 
  714250     299.2694   -36.135722    459373.56   -145999.28    26315.033    24917.955    559810.83   -146028.43 
  714500    298.11069    97.965489    458971.86   -145867.08    26213.146    25222.965    559646.43   -145889.73 
  714750    297.98596   -85.219629    458593.03   -145939.65    26202.179    24783.848    560017.97   -145971.44 
  715000    301.49303   -80.969602    459746.55   -145657.96    26510.558    24759.183    560315.29   -145689.34 
  715250    297.82426     154.5851    457459.75   -145870.43     26187.96    25121.454    559731.35   -145902.99 
  715500    298.04972   -52.162022    458753.85   -145899.95    26207.785    24872.193     559962.2   -145931.78 
  715750    301.63918   -110.27254    459830.51   -146168.22     26523.41    24866.308    559690.12   -146200.85 
  716000    298.01172   -86.420741    459472.96   -145874.29    26204.443    24771.535    560090.21   -145906.38 
  716250    298.51231    -24.47756    459575.97   -145954.49    26248.461    24984.075    559809.25   -145987.62 
  716500    299.83299    10.835787    461037.63      -145796    26364.589     25113.31    559817.44   -145823.64 
  716750    298.40483   -83.979582     459084.1   -146073.07     26239.01    24830.017    559822.98   -146101.98 
  717000    299.64796    127.95112    457684.82   -145761.47     26348.32    25092.641    559869.07   -145785.77 
  717250    301.35563    208.85856    456813.78    -145934.3    26498.476    25294.617    559501.16   -145964.35 
  717500    301.64886   -12.161625    458477.38   -146020.01     26524.26    24981.707    559734.75   -146050.87 
  717750    299.52654    97.640866    457162.25   -145924.67    26337.643    25113.958    559697.03   -145952.18 
  718000    300.95774     75.07134    458498.21   -145677.88     26463.49    25024.688    560031.19   -145706.49 
  718250     300.2006    34.320089    460891.32    -145841.2    26396.914    25184.432     559708.4   -145864.61 
  718500    298.40683    71.279683    459214.27    -145705.5    26239.185    25124.214    559909.35   -145734.88 
  718750    300.81492    32.075436    458945.38   -145859.24    26450.931    24985.945    559896.09   -145884.31 
  719000    298.98725   -57.423213    459736.51    -146063.3    26290.223    25002.664    559665.56   -146088.25 
  719250    301.40941    169.78458    458328.76   -145887.03    26503.205    25281.114    559563.22    -145914.4 
  719500    299.58313   -92.193969    459557.71   -145894.28    26342.619    24813.918    560029.08   -145919.82 
  719750    300.29335   -103.06764    459728.98   -145964.78    26405.069     24815.48    559952.61   -145995.32 
  720000    299.12088    94.710583    459485.62   -146083.56    26301.973    25235.517     559425.5   -146108.06 
  720250     298.6781   -16.312325    459983.97   -145742.66    26263.039    24960.338    560017.09   -145766.85 
  720500    302.33447     53.10712    457555.35   -146214.56    26584.547    25155.547    559368.85   -146243.93 
  720750    302.58059   -32.240193    458768.49   -146082.56    26606.188    24917.134    559728.78   -146108.29 
  721000    301.20345   -58.080132    460176.38    -145948.1    26485.095    24926.015    559855.03   -145973.53 
  721250     298.5711   -148.30316    460575.62   -145983.27     26253.63    24823.081    559933.51   -146013.42 
  721500    301.11633      112.204    457637.43   -145626.74    26477.435    25030.626    560074.58   -145653.57 
  721750    300.59708    40.935215       458283   -145787.43    26431.776    25000.015       559945   -145816.53 
  722000    299.21746   -24.100099    459077.47   -145788.25    26310.465    24775.541    560168.53   -145818.65 
  722250    299.79279   -36.454806    459339.43   -145939.29    26361.055    24942.935    559857.96    -145967.3 
  722500    300.86503    16.672127    459105.52   -146277.02    26455.337    25176.544     559301.9   -146302.83 
  722750    299.86877   -124.48006    459836.13   -145816.24    26367.735    24664.971    560256.51   -145845.23 
  723000    301.59559   -58.059102    460026.29   -145966.81    26519.576     24941.42    559819.96   -145997.81 
  723250    300.87559   -29.571492    460517.11   -146004.47    26456.266    25051.129    559685.32   -146021.38 
  723500    303.31284    37.553725    459639.65   -146162.47    26670.576    25067.485    559490.01   -146193.78 
  723750    300.18976   -135.98011    459762.24   -146288.72     26395.96    24890.856    559565.15   -146313.67 
  724000    298.12311    97.695925    460197.22    -145689.4    26214.238    25213.633    559851.31   -145713.04 
  724250    299.38349    232.21857    459008.56   -145911.35    26325.064    25451.324    559360.95   -145938.91 
  724500    297.37401   -135.00008    460834.85   -145640.14    26148.369      24674.5    560417.96   -145666.89 
  724750    300.19253    5.7617119     460078.1   -146241.93    26396.204    25200.385    559294.41   -146270.12 
  725000    301.72142    -74.65875    460520.71   -146042.66    26530.641    24965.475    559731.22   -146069.95 
  725250    305.07899    78.951917    459080.38   -146054.94    26825.875     25198.45    559483.57   -146084.23 
  725500    297.94221    12.865177     459511.8   -146234.93    26198.331    25201.004    559284.14   -146264.91 
  725750    298.75762   -45.699741    458882.53   -146076.79    26270.031    24926.288    559727.62   -146106.73 
  726000    300.65994   -174.30347    458423.18   -146242.23    26437.304    24728.832    559763.89   -146270.67 
  726250    300.12176    105.61312    458263.73   -145993.62    26389.982    25097.311    559632.09   -146025.45 
  726500    298.26773   -17.760222     459485.2   -145836.21    26226.955    24903.767    560003.31   -145864.44 
  726750    301.54285   -132.50571    460095.35   -145775.49    26514.939     24732.39    560215.92   -145799.99 
  727000    300.63935   -176.80989    460549.76   -145833.67    26435.493    24713.316    560199.17   -145860.96 
  727250    299.30499    17.606747    459710.34   -146219.73    26318.162    25266.553    559251.27   -146245.94 
  727500    299.12941   -58.421993    460438.82   -145937.78    26302.723     24984.26    559805.91   -145971.08 
  727750    300.45645   -140.30016    460627.07   -145988.92    26419.411    24809.473    559922.52   -146015.17 
  728000    297.65601    71.451313     459135.7   -146064.35    26173.166    25159.802    559500.81   -146092.42 
  728250    299.38124   -24.216206    460134.33   -145922.57    26324.866    25069.819    559751.84   -145948.35 
  728500    298.05066    71.377089    459574.45    -145858.5    26207.868    25153.388    559722.67   -145885.08 
  728750    300.77461   -137.84827    461564.45   -145753.27    26447.387    24706.888    560269.01   -145784.28 
  729000    297.98421   -151.12532    460663.36   -146361.37    26202.024    24990.736    559388.33   -146390.82 
  729250    300.64236    29.222321    458491.38    -145936.4    26435.758    24995.857     559802.3      -145971 
  729500    297.40125   -138.64838    461129.93   -145852.49    26150.765    24883.012    560001.29   -145879.17 
  729750    300.32558    59.609747    459233.45    -146408.4    26407.904    25324.099    558999.41   -146437.43 
  730000    298.97019   -202.03849    459471.66   -146222.71    26288.723    24733.152    559758.66   -146250.52 
  730250    298.13075   -53.926317    459462.08   -146078.18    26214.909    24979.602    559673.34    -146110.3 
  730500     300.2727    20.486611    460056.35   -145917.73    26403.254    25093.886    559716.73   -145947.54 
  730750    299.95316    44.360935    459963.94   -145936.85    26375.156    25181.992    559618.74   -145965.05 
  731000    299.88593   -30.582633     459616.5   -145995.18    26369.244    25003.166    559726.78   -146023.36 
  731250    302.01937   -142.10278    458996.18   -145774.67     26556.84    24679.076    560260.91   -145807.17 
  731500    298.77238    36.844386    458220.71   -146208.45    26271.329    25117.964    559417.44   -146234.63 
  731750    298.73889   -80.906869    460012.57   -145862.95    26268.384      24830.8     560040.5   -145892.26 
  732000    300.76146    173.96105    457527.35   -146405.27    26446.231    25441.411    558905.62   -146429.34 
  732250    300.30044   -101.53015    460109.23   -146075.77    26405.693    24959.582    559684.21      -146109 
  732500    300.85717    48.421532    460664.78   -145839.19    26454.647     25173.03    559720.53   -145864.02 
  732750    299.87712    35.763636    458863.06   -146157.99     26368.47    25160.084     559421.8   -146186.26 
  733000    300.05865    54.958061    458350.52   -145901.12    26384.432    25029.052    559807.85   -145931.35 
  733250    301.22068   -59.925064    457928.65   -146106.67     26486.61    24832.448    559811.49   -146132.83 
  733500    300.67755    67.763507    457944.31   -145764.41    26438.852    24985.292     559989.2    -145793.3 
  733750    298.01709    223.40744    458640.73    -145880.6    26204.916    25399.729    559458.71   -145915.94 
  734000    301.72361   -92.698968    459864.38   -145428.81    26530.833    24633.975    560663.29   -145463.59 
  734250    299.50589    79.989634    457339.01   -145983.83    26335.828    25060.506    559679.25   -146014.61 
  734500    300.41624   -103.29052    457256.58   -145848.22    26415.875    24635.656     560263.7   -145879.29 
  734750    299.08067    129.92843    457328.81   -145897.55    26298.437    25127.695    559717.66   -145931.77 
  735000    298.33608   -17.945177     459533.4   -146278.01    26232.965    25092.446    559366.25   -146314.94 
  735250    297.96563    161.38486    458634.65   -146115.82    26200.391    25387.197    559216.36   -146150.21 
  735500    300.30163    34.008135    459796.69   -146161.15    26405.797    25263.767     559288.8   -146193.93 
  735750    299.76836   -155.41345    459995.85    -146165.1    26358.906    24821.301    559728.49   -146196.66 
  736000     301.1609    131.69304    457899.63   -146128.37    26481.354    25264.186    559326.97   -146160.42 
  736250    302.71465   -35.043731    460960.82   -146115.23    26617.976    25076.076    559546.28   -146145.06 
  736500    301.32649    157.19482    459717.05   -146140.39    26495.914    25403.896    559182.42   -146183.47 
  736750    301.51337    -237.8374    461379.19   -146517.59    26512.347    24897.726    559306.12   -146551.04 
  737000    297.65756    67.001712    461239.61   -145779.25    26173.302    25248.955    559676.83   -145825.08 
  737250     297.3672   -8.5351905    460228.51   -145962.97     26147.77    25078.802     559681.6   -146003.93 
  737500    298.10078   -1.1405668    459917.54   -146291.68    26212.275     25279.05    559147.99   -146331.34 
  737750    302.48619    108.12521    460271.12    -145778.6    26597.887    25223.279    559714.69   -145820.13 
  738000     297.6824   -11.436138    460323.14   -145660.37    26175.486    24981.882    560089.44   -145697.54 
  738250    298.58425    125.63015    458409.38   -145785.78    26254.786    25217.014    559695.28   -145828.46 
  738500     301.5418   -67.873515    460070.27    -145450.6    26514.846    24730.823    560542.31   -145489.51 
  738750    301.08663   -10.625075    458996.18   -145975.37    26474.823    25013.053    559736.61   -146015.15 
  739000    297.18888   -219.57425    460549.54   -145792.99     26132.09    24677.354    560253.21   -145828.41 
  739250    298.66445   -6.8225332    459032.16   -146157.12    26261.839    25069.082    559512.23   -146195.22 
  739500    301.16661   -51.025255    458980.36   -146219.43    26481.855    25017.776    559496.22   -146260.03 
  739750    299.40105   -26.564498    459260.52   -146235.37    26326.609    25024.536    559463.01   -146268.36 
  740000    300.29822   -62.615644    460897.59   -145696.57    26405.497    24851.724     560167.9   -145734.32 
  740250    299.97737    -25.18176    460753.79   -145821.38    26377.285    24984.961    559923.23    -145858.1 
  740500    299.68965    162.34107    459778.61   -145969.19    26351.986    25360.074    559389.74   -146010.06 
  740750    301.73884    134.78871    458236.36   -146098.03    26532.173    25292.401    559325.12   -146132.73 
  741000    298.83916    -42.06593    458286.22   -146297.13    26277.201    25013.138    559413.15   -146333.22 
  741250    296.19984    -39.73578    459526.39    -146244.5    26045.123    25084.758    559392.15   -146273.54 
  741500    299.93573     17.43775    460214.82   -145761.39    26373.624      25052.9    559908.75   -145795.49 
  741750     300.6955   -31.382325    459486.18   -146081.35     26440.43     24972.63    559671.73   -146113.76 
  742000    299.55772    45.508588    459232.96   -145705.05    26340.385    24970.727    560034.67   -145740.06 
  742250     300.9361    32.615354    458621.16   -145897.94    26461.587    25026.402    559798.79   -145940.28 
  742500    298.82991    -10.05003    457702.15   -145980.27    26276.388    24865.534    559906.03   -146008.85 
  742750     299.6499   -88.565433       460500   -145961.36     26348.49    24886.326    559880.71   -145993.86 
  743000    298.16006    170.77427    459194.39   -145921.51    26217.487    25410.435    559384.81   -145953.07 
  743250    301.57073    229.38521    459395.05   -145871.48     26517.39    25442.328    559410.75   -145904.48 
  743500    300.92064    169.01328    458076.05    -145996.5    26460.228    25295.172    559441.68   -146024.79 
  743750    301.32582   -14.003804    458949.69   -146070.22    26495.855    24997.187    559662.48   -146100.89 
  744000    300.06234    9.8755708    459261.68   -146170.82    26384.756    25124.613     559444.1   -146199.38 
  744250    300.27196   -35.672334    462373.32   -145584.38    26403.189     24973.94    560145.05   -145622.45 
  744500    300.58424   -16.410473    461441.58   -145616.62    26430.648    24912.281    560207.09   -145646.28 
  744750     300.2487    87.056498       458594   -146006.01    26401.143    25215.301     559505.8   -146045.42 
  745000       298.71   -100.50296    460199.69    -145723.6    26265.844     24831.87    560159.82   -145757.78 
  745250    298.54255    196.18961    460058.52   -145847.86     26251.12    25506.366    559361.62   -145882.12 
  745500    300.65593    -37.70488    459035.71   -146093.51    26436.951    25007.592    559622.33   -146128.37 
  745750    299.84636    45.460339    459131.62   -146076.82    26365.765    25155.059    559506.47   -146106.79 
  746000    300.60587   -13.444469    459201.12   -146109.69    26432.549    25097.544    559513.11   -146135.98 
  746250    298.31249   -3.9744942    458540.37   -146083.13    26230.891    25076.358    559584.01   -146112.74 
  746500    300.02403    65.275925    459573.43   -145760.52    26381.388    25109.265    559878.64    -145786.6 
  746750    301.45979   -87.259796    460054.22   -146041.26    26507.635    24873.722    559815.41   -146070.08 
  747000    300.82521    -65.17135    461419.48    -145925.7    26451.836    24985.803    559825.69   -145953.56 
  747250     299.5073    106.82802    458698.66   -146171.93    26335.951    25319.316    559251.95   -146200.77 
  747500    298.95418    38.970486    459546.69   -146019.79    26287.315    25162.267    559551.37   -146054.33 
  747750    300.29219    -99.45197    460275.23   -145727.79    26404.967    24761.135    560234.49   -145759.36 
  748000    300.99469   -31.463305    459111.01    -145827.7    26466.739    24840.896    560059.35   -145854.88 
  748250    298.36572    2.7844154    459842.79    -145733.1    26235.571     24930.83    560063.44    -145764.9 
  748500    301.45736    99.682743    459314.77   -145933.09    26507.422     25163.18    559639.24   -145960.45 
  748750    302.65839   -78.566257    459488.08   -146105.38     26613.03    24945.661    559690.07   -146135.25 
  749000    302.44467    -212.6141    460707.67   -146046.68    26594.237    24683.671    560010.87   -146074.64 
  749250    301.46192   -32.015564    458936.79   -146428.76    26507.823    25156.773     559148.5   -146457.24 
  749500    300.15291    8.1369281    459269.43   -145819.79     26392.72    24958.306    559934.08    -145853.6 
  749750    300.14959    70.291112    459269.84   -145918.08    26392.428    25180.347    559658.94   -145949.43 
  750000    298.45077   -56.907249    460387.44   -146127.92    26243.049    25064.359    559558.83   -146157.09 
  750250    298.26996   -2.4600389    459649.29   -145744.86    26227.151    24894.862    560104.09    -145772.8 
  750500    299.07428   -239.05656    459862.09   -146091.58    26297.875    24596.356    560022.71   -146127.44 
  750750    301.96124    33.704802    458574.77   -146315.18    26551.729    25167.975    559270.03   -146341.72 
  751000    300.77066    135.21459    459532.32   -145743.79     26447.04    25168.559    559818.81   -145777.56 
  751250    297.77132    114.91177    459121.64   -145711.66    26183.305    25113.506    559909.47   -145740.23 
  751500     299.0854   -127.05149     458247.3   -146168.15    26298.853    24859.765    559698.19    -146200.9 
  751750    298.65089   -44.862894    458169.72   -146213.19    26260.646    24925.218    559590.42   -146242.45 
  752000    301.30389    17.846373    458768.54   -146068.73    26493.927    25103.949    559539.97   -146100.52 
  752250    302.13963     125.1477    460052.66   -145930.86    26567.415    25333.502    559455.05   -145961.51 
  752500    298.96355    46.749191    460931.12   -145806.99    26288.139    25166.188    559756.82   -145831.77 
  752750    298.62683   -44.848807    460586.32   -146299.45    26258.531    25107.895    559346.81   -146319.68 
  753000    299.53457   -51.344614    460778.83   -145840.74    26338.349    24904.764    560000.67   -145868.94 
  753250    299.96459   -9.9365649    459153.52   -146141.96    26376.161    25051.886    559549.74   -146170.58 
  753500    299.22996   -108.45146    460671.03   -145833.08    26311.564    24827.384    560083.69   -145859.51 
  753750    301.06195    90.001395     458960.7   -146213.54    26472.653    25315.046     559207.8   -146241.08 
  754000    298.91485    57.448694    459822.91   -146019.37    26283.857    25236.612    559468.89   -146051.28 
  754250    298.97093   -123.13306    460965.77   -146047.46    26288.788    25004.198    559689.62   -146078.58 
  754500    298.27997   -7.4980104    458808.19   -146109.87    26228.031    25060.114    559554.41    -146133.6 
  754750     300.8497    124.17132    457978.73   -146133.81     26453.99    25210.057    559393.71   -146163.46 
  755000    299.11632   -83.951036     457638.8   -145860.57    26301.572    24727.507    560146.44    -145884.4 
  755250    300.87208    46.063258    457764.68    -145955.6    26455.958    24935.287    559839.95   -145979.69 
  755500    303.16441    21.605917    459824.69   -145853.57    26657.524    24992.571    559875.54   -145884.03 
  755750    299.37877   -4.6667759     460938.9   -145942.05    26324.649     25114.77    559668.19   -145968.48 
  756000     299.9637    62.338038    459674.26   -145956.72    26376.083    25195.967    559588.68   -145984.58 
  756250    298.76288   -66.859759    460258.39   -146149.01    26270.493    25036.024    559561.18   -146177.35 
  756500    300.70855   -52.538137    461290.25   -145694.49    26441.578    24911.565    560105.25   -145718.49 
  756750    299.02721   -62.602129    460693.36   -146374.82    26293.737    25162.055    559198.29   -146399.89 
  757000    299.21922   -54.909274    460472.54   -146079.41     26310.62    25034.144    559619.38   -146103.07 
  757250     300.0627   -60.206732    459930.69   -145888.72    26384.788    24858.324    559972.09   -145915.77 
  757500    301.63821   -21.769334    459080.67   -145819.28    26523.324    24880.292    560021.24   -145848.87 
  757750    298.95775   -6.2159041    459540.82   -146138.17    26287.628     25050.85    559543.84   -146164.39 
  758000    299.28962   -120.12748    461887.53   -145898.84    26316.811    24913.855    559934.17   -145922.74 
  758250    300.43767   -69.860254    460201.13   -146026.99     26417.76     24966.45    559724.15   -146056.49 
  758500    299.80552   -8.6024633    459082.53   -146068.65    26362.174     25042.88    559628.97    -146096.4 
  758750    297.79887    -40.95777    459283.56   -146159.53    26185.728    25109.305    559457.98   -146188.75 
  759000    298.49304    -4.301403    459132.56   -146066.35    26246.766    25026.989    559649.25   -146090.77 
  759250    301.10473    -123.2628    460477.88   -145830.84    26476.415    24777.094    560134.66   -145861.65 
  759500    299.73134    84.814883    459150.83   -145949.96    26355.652    25131.695    559635.13   -145983.84 
  759750    300.18795   -32.634686    459308.46   -146125.23    26395.802    25001.569    559601.98    -146153.7 
  760000    301.69528    5.0701342     460219.9   -145956.89    26528.342    25026.256    559732.28   -145986.29 
  760250    300.09756  -0.59076416    456972.76   -146420.08    26387.853    25078.149    559228.94    -146445.6 
  760500    298.48342   -43.111579    459143.89   -146023.25     26245.92    24977.752    559728.93   -146049.02 
  760750    299.67898   -103.74795    459508.48   -145894.99    26351.047    24747.146    560093.69   -145917.35 
  761000     298.7628    94.190521    457990.25   -145912.72    26270.486    25101.527    559718.17   -145941.99 
  761250    298.72141   -37.453374    458623.48    -145924.3    26266.847    24836.728    559964.62   -145951.95 
  761500    301.38771    50.952717    458340.37   -145926.99    26501.298    24998.761    559813.77   -145952.82 
  761750    299.71845     13.49452    457915.71    -145858.7    26354.518    24909.426    559954.31   -145883.63 
  762000    298.91337   -52.784181    459138.77   -145744.27    26283.726    24814.425    560174.38   -145770.04 
  762250    300.88255   -31.155913    457687.69   -145976.91    26456.878    24853.311    559890.49   -146006.77 
  762500    298.20837   -239.37553    460715.55   -145488.15    26221.735    24448.002    560781.49   -145517.37 
  762750    298.45266   -54.291445    460554.62    -145760.5    26243.216    24980.447    559990.11   -145783.27 
  763000     300.4772    74.026052    458886.86   -145886.22    26421.235    25142.446    559714.14   -145913.68 
  763250    301.03985    107.17297    458116.38   -146207.49     26470.71    25217.373    559325.38   -146228.87 
  763500    300.36365    44.421565    458700.21   -145841.04    26411.251    25055.904    559836.72   -145866.98 
  763750    299.13415    164.50605    457727.65   -145635.68    26303.139    25127.528    559975.44   -145662.59 
  764000    301.14135    179.55003    458130.17   -146038.11    26479.634    25402.446     559288.4   -146067.82 
  764250    300.88213    173.42141    459182.96   -146185.63    26456.842    25446.911    559097.64   -146211.78 
  764500    301.66419    47.484429    461131.31    -145184.5    26525.609    24876.877     560667.9   -145212.36 
  764750      300.903    120.27651    460462.62   -145719.98    26458.676    25218.074    559799.54   -145745.91 
  765000    300.41618   -16.139539    459692.11    -146047.1     26415.87    25107.314    559580.78   -146079.64 
  765250    297.60789   -136.96266    460513.49    -145800.1    26168.934    24696.705    560237.11   -145825.44 
  765500    301.44606    1.8747625    459496.83   -146294.15    26506.428    25151.424    559284.99   -146319.34 
  765750    297.78745     55.97697    458091.63   -146375.57    26184.724    25192.822    559169.89   -146407.29 
  766000    300.47818   -85.898871    459890.72   -145787.88    26421.322    24838.074    560115.63   -145813.85 
  766250    301.01597    71.991437    457005.13   -145962.27     26468.61    24975.294     559795.1   -145987.67 
  766500    300.68912   -141.18532    458930.45   -145894.89     26439.87    24615.829    560220.87   -145918.86 
  766750    299.50491    -89.35809    459359.77   -145961.09    26335.741    24827.636    559941.64   -145988.24 
  767000    299.43393    31.336334    460888.94   -145919.31      26329.5    25150.143    559669.01   -145946.36 
  767250     300.7026   -6.7835054    458963.18   -146217.81    26441.055    25070.114    559460.04   -146248.58 
  767500    298.26599   -37.005537    460588.99   -146211.01    26226.802    25158.101    559364.49   -146241.08 
  767750     301.8567   -9.8752735     459017.9   -146057.22    26542.536    24967.378     559725.9   -146087.22 
  768000    300.54462    120.76599    458004.37   -146018.05    26427.164    25187.923    559519.45   -146051.79 
  768250    302.90564   -80.729826    460872.28   -145844.26    26634.771    24842.919    560044.84   -145872.28 
  768500    300.62118    98.147556    459546.64   -145869.74    26433.896    25098.313     559761.4    -145900.1 
  768750    300.05296    46.932558    460325.37   -145736.59    26383.932    25054.334     559942.7   -145765.11 
  769000    301.17965    16.953925    460085.63   -146080.34    26483.002     25135.95    559508.49   -146107.29 
  769250    301.35416    176.90533    460357.97   -145884.02    26498.347    25435.735    559417.79   -145911.62 
  769500    299.45614    97.476443    460432.59   -145769.05    26331.453    25217.799    559740.22   -145797.59 
  769750    299.39339     12.52281    458406.99   -146224.43    26325.935    25065.254     559462.5   -146253.13 
  770000    298.01409   -25.089883    459260.18    -146063.6    26204.652    25085.705    559579.64   -146097.78 
  770250    299.04445   -29.793144    458577.84    -145978.5    26295.252    24955.888    559786.11   -146015.94 
  770500    300.72823   -108.77199    459249.19   -145769.77    26443.309    24676.449    560277.82   -145807.96 
  770750    299.99659   -5.3457225    458138.58   -146152.13    26378.975    25007.994    559597.51    -146180.2 
  771000    300.39353   -97.811291    460752.65   -146011.03    26413.878    24956.463    559764.24   -146039.73 
  771250    300.11741    101.46562    459992.46   -146119.21    26389.599    25354.285    559246.55   -146151.45 
  771500    299.54979    -138.9302    460368.62   -145761.48    26339.687    24736.231    560243.17   -145790.07 
  771750    301.18636   -134.45199    459989.49   -145858.46    26483.592    24794.325     560076.6   -145892.71 
  772000    299.48612    147.48686    459120.34   -145869.61    26334.089    25254.119    559601.37   -145897.15 
  772250    297.96835   -170.55178    461063.14   -146082.16     26200.63     24858.88    559792.65   -146111.78 
  772500     299.2123   -66.677021    458642.29   -146229.85    26310.012    24949.434    559548.53   -146268.34 
  772750     298.1124    21.830665    460198.51   -145622.97    26213.296    25003.952    5600