LAMMPS 2005 Description - Generated by XenoView

       12061  atoms
        8140  bonds
        4517  angles
         888  dihedrals
         397  impropers

           3  atom types
           3  bond types
           4  angle types
           3  dihedral types
           3  improper types

 -100.0000000000  100.0000000000 xlo xhi
  -20.0000000000   20.0000000000 ylo yhi
  -20.0000000000   20.0000000000 zlo zhi

Masses

  1   1.007970  h   
  2  12.011150  c   
  3  15.999400  o   

Pair Coeffs

  1   0.0200000000   2.9950000000
  2   0.0540000000   4.0100000000
  3   0.2400000000   3.5350000000

Bond Coeffs

  1      1.1010    345.0000   -691.8900    844.6000
  2      1.5300    299.6700   -501.7700    679.8100
  3      0.9600    493.8480      0.0000      0.0000

Angle Coeffs

  1    107.6600     39.6410    -12.9210     -2.4318
  2    110.7700     41.4530    -10.6040      5.1290
  3    112.6700     39.5160     -7.4430     -9.5583
  4    109.0000     58.5000      0.0000      0.0000

Dihedral Coeffs

  1    -0.1432     0.0000     0.0617     0.0000    -0.1083     0.0000
  2     0.0000     0.0000     0.0316     0.0000    -0.1681     0.0000
  3     0.0000     0.0000     0.0514     0.0000    -0.1430     0.0000

Improper Coeffs

  1      0.0000      0.0000
  2      0.0000      0.0000
  3      0.0000      0.0000

BondBond Coeffs

  1      5.3316      1.1010      1.1010
  2      3.3872      1.1010      1.5300
  3      0.0000      1.5300      1.5300
  4      0.0000      0.9600      0.9600

BondAngle Coeffs

  1     18.1030     18.1030      1.1010      1.1010
  2     11.4210     20.7540      1.1010      1.5300
  3      8.0160      8.0160      1.5300      1.5300
  4      0.0000      0.0000      0.9600      0.9600

AngleAngle Coeffs

  1      0.2738      0.2738      0.2738    110.7700    107.6600    110.7700
  2     -1.3199     -1.3199      0.1184    110.7700    110.7700    112.6700
  3     -0.3157     -0.3157     -0.3157    107.6600    107.6600    107.6600

AngleAngleTorsion Coeffs

  1    -12.5640    110.7700    110.7700
  2    -16.1640    110.7700    112.6700
  3    -22.0450    112.6700    112.6700

EndBondTorsion Coeffs

  1      0.2130      0.3120      0.0777      0.2130      0.3120      0.0777      1.1010      1.1010
  2      0.0814      0.0591      0.2219      0.2486      0.2422     -0.0925      1.1010      1.5300
  3     -0.0732      0.0000      0.0000     -0.0732      0.0000      0.0000      1.5300      1.5300

MiddleBondTorsion Coeffs

  1    -14.2610     -0.5322     -0.4864      1.5300
  2    -14.8790     -3.6581     -0.3138      1.5300
  3    -17.7870     -7.1877      0.0000      1.5300

BondBond13 Coeffs

  1      0.0000      1.1010      1.1010
  2      0.0000      1.1010      1.5300
  3      0.0000      1.5300      1.5300

AngleTorsion Coeffs

  1     -0.8085      0.5569     -0.2466     -0.8085      0.5569     -0.2466    110.7700    110.7700
  2      0.3113      0.4516     -0.1988     -0.2454      0.0000     -0.1136    110.7700    112.6700
  3      0.3886     -0.3139      0.1389      0.3886     -0.3139      0.1389    112.6700    112.6700

Atoms

      1      1   1  0.000000   -94.112670898     0.573726475    -0.341709018
      2      1   1  0.000000   -94.059722900    -1.019821048    -0.952318966
      3      1   2  0.000000   -93.541542053    -0.071562596    -1.131644607
      4      1   1  0.000000   -92.097640991     0.776224911    -0.214372098
      5      1   1  0.000000   -92.282127380    -1.046449304     0.190524206
      6      1   2  0.000000   -92.052963257    -0.207176909    -0.512358308
      7      1   1  0.000000   -90.347885132     0.564466774     0.565605819
      8      1   1  0.000000   -90.365623474    -1.091480255     0.438755482
      9      1   2  0.000000   -90.367332458    -0.255547643    -0.273788154
     10      1   1  0.000000   -88.815971375     0.822683513    -0.458176017
     11      1   1  0.000000   -88.777351379    -1.188943982    -0.703990102
     12      1   2  0.000000   -88.781692505    -0.128892168    -0.999671400
     13      1   1  0.000000   -87.118164063     0.733729243     0.382998645
     14      1   1  0.000000   -87.122100830    -0.895139098     0.435589224
     15      1   2  0.000000   -87.103332520    -0.105691135    -0.345051348
     16      1   1  0.000000   -85.369606018     0.606383383    -0.236862376
     17      1   1  0.000000   -85.387428284    -1.258096695    -0.651872873
     18      1   2  0.000000   -85.378150940    -0.204486698    -0.980700254
     19      1   1  0.000000   -83.599838257     0.759420991     0.311290711
     20      1   1  0.000000   -83.633285522    -0.844945788     0.427413017
     21      1   2  0.000000   -83.619239807    -0.098180592    -0.398520589
     22      1   1  0.000000   -81.824028015     0.663379908    -0.366236806
     23      1   1  0.000000   -81.910171509    -1.226197362    -0.545037925
     24      1   2  0.000000   -81.869438171    -0.225811809    -1.023759484
     25      1   1  0.000000   -80.079277039     0.492880017     0.353367895
     26      1   1  0.000000   -80.112197876    -1.095442176     0.314886361
     27      1   2  0.000000   -80.098777771    -0.288193256    -0.444019049
     28      1   1  0.000000   -78.332809448     0.884205997    -0.643196464
     29      1   1  0.000000   -78.257171631    -0.828985870    -0.158813253
     30      1   2  0.000000   -78.341903687    -0.153184488    -1.023316503
     31      1   1  0.000000   -76.427154541     0.464111149    -0.036553893
     32      1   1  0.000000   -76.397293091    -1.159737945    -0.524270415
     33      1   2  0.000000   -76.381469727    -0.140680119    -0.989602387
     34      1   1  0.000000   -74.464553833     0.822525799    -0.341954768
     35      1   1  0.000000   -74.517654419    -0.892838180    -0.067503668
     36      1   2  0.000000   -74.423614502    -0.145733461    -0.877042174
     37      1   1  0.000000   -72.636894226     0.512501955     0.467492074
     38      1   1  0.000000   -72.598144531    -1.071662426     0.400161713
     39      1   2  0.000000   -72.656196594    -0.252595186    -0.345102519
     40      1   1  0.000000   -70.957138062     0.733792603    -0.406810105
     41      1   1  0.000000   -70.892051697    -1.210843563    -0.638202906
     42      1   2  0.000000   -70.932289124    -0.177683279    -1.030175328
     43      1   1  0.000000   -69.199737549     0.725083411     0.350958496
     44      1   1  0.000000   -69.191642761    -0.881055295     0.403782278
     45      1   2  0.000000   -69.184120178    -0.102684155    -0.394096822
     46      1   1  0.000000   -67.419067383     0.589349031    -0.233111829
     47      1   1  0.000000   -67.416015625    -1.258627772    -0.649122179
     48      1   2  0.000000   -67.418899536    -0.209021553    -0.993917942
     49      1   1  0.000000   -65.629959106     0.757816732     0.307037860
     50      1   1  0.000000   -65.660530090    -0.838751912     0.417932302
     51      1   2  0.000000   -65.647064209    -0.092848666    -0.411738575
     52      1   1  0.000000   -63.835552216     0.662505209    -0.358272940
     53      1   1  0.000000   -63.910903931    -1.205782294    -0.535325706
     54      1   2  0.000000   -63.874290466    -0.216348618    -1.032155156
     55      1   1  0.000000   -62.065483093     0.504669011     0.327421814
     56      1   1  0.000000   -62.109912872    -1.075446606     0.301670939
     57      1   2  0.000000   -62.071117401    -0.272937685    -0.464088112
     58      1   1  0.000000   -60.270660400     0.818803430    -0.648682654
     59      1   1  0.000000   -60.195365906    -0.840647280    -0.135181621
     60      1   2  0.000000   -60.272495270    -0.214590713    -1.024279237
     61      1   1  0.000000   -58.327556610     0.470220357    -0.103042752
     62      1   1  0.000000   -58.286701202    -1.188344240    -0.522648573
     63      1   2  0.000000   -58.276016235    -0.185637340    -1.038647294
     64      1   1  0.000000   -56.330646515     0.778548479    -0.308223724
     65      1   1  0.000000   -56.338748932    -0.944019139    -0.120517373
     66      1   2  0.000000   -56.273551941    -0.160337225    -0.959646523
     67      1   1  0.000000   -54.419532776     0.576823771     0.354012817
     68      1   1  0.000000   -54.379421234    -0.973019660     0.297539532
     69      1   2  0.000000   -54.408267975    -0.168330774    -0.455043614
     70      1   1  0.000000   -52.584918976     0.559431732    -0.172012150
     71      1   1  0.000000   -52.518859863    -1.177997231    -0.556111157
     72      1   2  0.000000   -52.564788818    -0.167507768    -0.997918427
     73      1   1  0.000000   -50.744312286     0.792245686     0.341195047
     74      1   1  0.000000   -50.713802338    -0.786201179     0.275057137
     75      1   2  0.000000   -50.680751801     0.042738017    -0.477651030
     76      1   1  0.000000   -48.753234863     0.363827974     0.121518537
     77      1   1  0.000000   -48.814563751    -1.215275645    -0.562779665
     78      1   2  0.000000   -48.783397675    -0.154533908    -0.860644162
     79      1   1  0.000000   -46.775707245     0.730022073    -0.175039321
     80      1   1  0.000000   -46.825141907    -0.946404696     0.023189537
     81      1   2  0.000000   -46.779834747    -0.194185227    -0.796428859
     82      1   1  0.000000   -44.824859619     0.606156468     0.417418540
     83      1   1  0.000000   -44.827156067    -0.975957811     0.321876138
     84      1   2  0.000000   -44.896915436    -0.133958355    -0.409499347
     85      1   1  0.000000   -43.076293945     0.656992197    -0.318952978
     86      1   1  0.000000   -43.050167084    -1.202600121    -0.609682143
     87      1   2  0.000000   -43.082881927    -0.184107319    -1.040215492
     88      1   1  0.000000   -41.264686584     0.730653405     0.311276197
     89      1   1  0.000000   -41.264205933    -0.855500817     0.349341959
     90      1   2  0.000000   -41.266750336    -0.077200316    -0.453715652
     91      1   1  0.000000   -39.452629089     0.555116653    -0.209453478
     92      1   1  0.000000   -39.442630768    -1.258851886    -0.639823198
     93      1   2  0.000000   -39.452667236    -0.215588048    -1.002929449
     94      1   1  0.000000   -37.638248444     0.759237051     0.300418913
     95      1   1  0.000000   -37.666629791    -0.833380222     0.404778391
     96      1   2  0.000000   -37.662380219    -0.084930673    -0.424949288
     97      1   1  0.000000   -35.840381622     0.666967273    -0.356982291
     98      1   1  0.000000   -35.917003632    -1.204086423    -0.539227962
     99      1   2  0.000000   -35.881168365    -0.212082952    -1.026190639
    100      1   1  0.000000   -34.087703705     0.495316327     0.356299847
    101      1   1  0.000000   -34.125171661    -1.100132942     0.312483430
    102      1   2  0.000000   -34.106971741    -0.284600288    -0.440982491
    103      1   1  0.000000   -32.330829620     0.878025949    -0.631832361
    104      1   1  0.000000   -32.249713898    -0.828551710    -0.133588836
    105      1   2  0.000000   -32.344238281    -0.160666808    -1.011269331
    106      1   1  0.000000   -30.423698425     0.454900801    -0.053615119
    107      1   1  0.000000   -30.395566940    -1.180572510    -0.561205804
    108      1   2  0.000000   -30.381151199    -0.154091164    -1.004677534
    109      1   1  0.000000   -28.467458725     0.818545699    -0.349997580
    110      1   1  0.000000   -28.527248383    -0.894925952    -0.047698788
    111      1   2  0.000000   -28.423868179    -0.153860450    -0.873501122
    112      1   1  0.000000   -26.638097763     0.513579965     0.474128038
    113      1   1  0.000000   -26.597894669    -1.078896642     0.394916236
    114      1   2  0.000000   -26.659067154    -0.250282645    -0.339662015
    115      1   1  0.000000   -24.958938599     0.748496950    -0.399034798
    116      1   1  0.000000   -24.900011063    -1.187346339    -0.634676218
    117      1   2  0.000000   -24.938976288    -0.159047246    -1.024449348
    118      1   1  0.000000   -23.200468063     0.725801229     0.355218947
    119      1   1  0.000000   -23.194408417    -0.883428216     0.404356569
    120      1   2  0.000000   -23.189098358    -0.101170242    -0.390243083
    121      1   1  0.000000   -21.426671982     0.595711768    -0.233908713
    122      1   1  0.000000   -21.436117172    -1.255382657    -0.650652587
    123      1   2  0.000000   -21.431516647    -0.205235794    -0.991009414
    124      1   1  0.000000   -19.641208649     0.758203089     0.310249329
    125      1   1  0.000000   -19.676677704    -0.843291938     0.427561969
    126      1   2  0.000000   -19.666553497    -0.098217718    -0.401792765
    127      1   1  0.000000   -17.864143372     0.665609300    -0.379370213
    128      1   1  0.000000   -17.955545425    -1.228572845    -0.543706417
    129      1   2  0.000000   -17.914342880    -0.230427161    -1.026337624
    130      1   1  0.000000   -16.118869781     0.491523892     0.338314146
    131      1   1  0.000000   -16.159004211    -1.103129268     0.315804064
    132      1   2  0.000000   -16.149681091    -0.299279302    -0.447399497
    133      1   1  0.000000   -14.392103195     0.877288043    -0.691258490
    134      1   1  0.000000   -14.316938400    -0.842847526    -0.168752238
    135      1   2  0.000000   -14.408546448    -0.170386925    -1.049299240
    136      1   1  0.000000   -12.508538246     0.450895190    -0.046351101
    137      1   1  0.000000   -12.476016998    -1.175727844    -0.529959857
    138      1   2  0.000000   -12.459298134    -0.162605450    -0.974123061
    139      1   1  0.000000   -10.561306953     0.827918828    -0.359851986
    140      1   1  0.000000   -10.634974480    -0.912129462    -0.034064025
    141      1   2  0.000000   -10.516750336    -0.166273236    -0.852698565
    142      1   1  0.000000    -8.771386147     0.502856195     0.518183470
    143      1   1  0.000000    -8.726713181    -1.109022856     0.448970526
    144      1   2  0.000000    -8.807404518    -0.274773657    -0.277351707
    145      1   1  0.000000    -7.231769085     0.873298109    -0.642740130
    146      1   1  0.000000    -7.112318039    -1.201416135    -0.722404838
    147      1   2  0.000000    -7.188632488    -0.151057810    -1.036605477
    148      1   1  0.000000    -5.619097710     0.763085485     0.441836149
    149      1   1  0.000000    -5.550390244    -0.880895078     0.466348857
    150      1   2  0.000000    -5.578532219    -0.065856583    -0.296211421
    151      1   1  0.000000    -3.783416748     0.384940892     0.012370177
    152      1   1  0.000000    -3.991446257    -1.185650349    -0.961637616
    153      1   2  0.000000    -3.947756529    -0.081785180    -0.981057644
    154      1   1  0.000000    -2.032715559     0.902933300    -0.589584589
    155      1   1  0.000000    -2.185017109    -0.857172251    -0.140840471
    156      1   2  0.000000    -2.032500029    -0.137910470    -0.978856385
    157      1   1  0.000000    -0.311879486     0.507665277     0.412290275
    158      1   1  0.000000    -0.298121631    -1.136298656     0.299756914
    159      1   2  0.000000    -0.344789237    -0.266836584    -0.386271089
    160      1   1  0.000000     1.232678652     0.833661258    -0.721479058
    161      1   1  0.000000     1.318589449    -1.237951875    -0.856188655
    162      1   2  0.000000     1.279025078    -0.178331107    -1.144734502
    163      1   1  0.000000     2.877739429     0.718580246     0.319932550
    164      1   1  0.000000     2.892448425    -0.911474943     0.387596190
    165      1   2  0.000000     2.928812265    -0.127614781    -0.401177853
    166      1   1  0.000000     4.656809807     0.610608220    -0.256855577
    167      1   1  0.000000     4.671769142    -1.262274504    -0.660818160
    168      1   2  0.000000     4.667470455    -0.208475441    -0.993532956
    169      1   1  0.000000     6.421009064     0.760331452     0.320961624
    170      1   1  0.000000     6.392920494    -0.846323431     0.436841488
    171      1   2  0.000000     6.410229683    -0.097807005    -0.388275295
    172      1   1  0.000000     8.192510605     0.673475444    -0.355303168
    173      1   1  0.000000     8.119704247    -1.211077571    -0.546972513
    174      1   2  0.000000     8.152867317    -0.211091667    -1.017915845
    175      1   1  0.000000     9.930955887     0.516458452     0.356899947
    176      1   1  0.000000     9.891418457    -1.088424087     0.320316166
    177      1   2  0.000000     9.913602829    -0.272890925    -0.426851451
    178      1   1  0.000000    11.672853470     0.877072930    -0.652549088
    179      1   1  0.000000    11.754554749    -0.845908821    -0.131808817
    180      1   2  0.000000    11.660573006    -0.173458129    -1.021664739
    181      1   1  0.000000    13.558075905     0.420263469    -0.051140726
    182      1   1  0.000000    13.606534004    -1.196430206    -0.601242304
    183      1   2  0.000000    13.614859581    -0.156082794    -0.995703816
    184      1   1  0.000000    15.523495674     0.805382192    -0.327678829
    185      1   1  0.000000    15.471824646    -0.891279161    -0.017917637
    186      1   2  0.000000    15.574748993    -0.171577081    -0.870924592
    187      1   1  0.000000    17.376533508     0.543148220     0.472549468
    188      1   1  0.000000    17.399385452    -1.053977966     0.399505198
    189      1   2  0.000000    17.340061188    -0.224219963    -0.333000779
    190      1   1  0.000000    19.047750473     0.738498271    -0.392444074
    191      1   1  0.000000    19.089969635    -1.190625072    -0.637674630
    192      1   2  0.000000    19.062192917    -0.162322745    -1.030250907
    193      1   1  0.000000    20.801710129     0.725509286     0.347280473
    194      1   1  0.000000    20.806324005    -0.878824890     0.398708820
    195      1   2  0.000000    20.815433502    -0.099806495    -0.399219394
    196      1   1  0.000000    22.587154388     0.586153924    -0.230178580
    197      1   1  0.000000    22.572814941    -1.256537080    -0.646745503
    198      1   2  0.000000    22.585817337    -0.209903479    -0.998912036
    199      1   1  0.000000    24.388381958     0.749248266     0.298375338
    200      1   1  0.000000    24.346500397    -0.836733460     0.417251140
    201      1   2  0.000000    24.376852036    -0.098978162    -0.420128971
    202      1   1  0.000000    26.204488754     0.641459763    -0.359622657
    203      1   1  0.000000    26.100517273    -1.231365323    -0.519436181
    204      1   2  0.000000    26.157308578    -0.250079066    -1.009972572
    205      1   1  0.000000    27.967866898     0.490701139     0.313936472
    206      1   1  0.000000    27.947389603    -1.149494767     0.361988664
    207      1   2  0.000000    27.956008911    -0.334229469    -0.452356875
    208      1   1  0.000000    29.771509171     0.983138919    -0.603493035
    209      1   1  0.000000    29.859998703    -0.904300272    -0.190718904
    210      1   2  0.000000    29.746896744    -0.159890428    -1.082445741
    211      1   1  0.000000    31.672910690     0.548176944    -0.255653322
    212      1   1  0.000000    31.722461700    -1.140147686    -0.495015144
    213      1   2  0.000000    31.745561600    -0.139049694    -1.028216243
    214      1   1  0.000000    33.614818573     0.825511575    -0.220313445
    215      1   1  0.000000    33.607566833    -0.960259676    -0.189838797
    216      1   2  0.000000    33.671180725    -0.121394828    -0.963827133
    217      1   1  0.000000    35.562534332     0.584062040     0.340748966
    218      1   1  0.000000    35.570339203    -1.062285304     0.360341638
    219      1   2  0.000000    35.561023712    -0.220242575    -0.451380342
    220      1   1  0.000000    37.379703522     0.552852631    -0.178101286
    221      1   1  0.000000    37.461894989    -1.212118626    -0.549421906
    222      1   2  0.000000    37.418106079    -0.203319579    -0.991048396
    223      1   1  0.000000    39.234493256     0.779219270     0.328620702
    224      1   1  0.000000    39.273159027    -0.784712613     0.275182664
    225      1   2  0.000000    39.293624878     0.032499678    -0.484123260
    226      1   1  0.000000    41.235183716     0.356317997     0.117454723
    227      1   1  0.000000    41.185955048    -1.235494852    -0.564938366
    228      1   2  0.000000    41.200176239    -0.169557780    -0.865637600
    229      1   1  0.000000    43.218536377     0.726989329    -0.176564366
    230      1   1  0.000000    43.170448303    -0.944065571     0.035069209
    231      1   2  0.000000    43.210441589    -0.201473638    -0.790850997
    232      1   1  0.000000    45.171001434     0.604628682     0.420449764
    233      1   1  0.000000    45.171657562    -0.980764985     0.315795243
    234      1   2  0.000000    45.098056793    -0.132396966    -0.409169763
    235      1   1  0.000000    46.920406342     0.667572260    -0.313464403
    236      1   1  0.000000    46.940582275    -1.183669448    -0.605489612
    237      1   2  0.000000    46.912498474    -0.169671819    -1.038082480
    238      1   1  0.000000    48.734256744     0.730855644     0.313556790
    239      1   1  0.000000    48.733989716    -0.856801450     0.348233342
    240      1   2  0.000000    48.729557037    -0.075380392    -0.452323496
    241      1   1  0.000000    50.545185089     0.557312429    -0.208533451
    242      1   1  0.000000    50.541957855    -1.254801035    -0.639427781
    243      1   2  0.000000    50.542190552    -0.212377712    -1.003213644
    244      1   1  0.000000    52.361644745     0.758499265     0.298986048
    245      1   1  0.000000    52.331470490    -0.832527459     0.404771030
    246      1   2  0.000000    52.335319519    -0.085700423    -0.425285041
    247      1   1  0.000000    54.157691956     0.657648981    -0.359694332
    248      1   1  0.000000    54.073436737    -1.223661542    -0.544517219
    249      1   2  0.000000    54.112667084    -0.224904820    -1.029367208
    250      1   1  0.000000    55.908493042     0.498020530     0.357011259
    251      1   1  0.000000    55.875373840    -1.091512322     0.321299255
    252      1   2  0.000000    55.894256592    -0.286823422    -0.431291133
    253      1   1  0.000000    57.669910431     0.877283335    -0.622730196
    254      1   1  0.000000    57.756202698    -0.828611195    -0.136056453
    255      1   2  0.000000    57.653759003    -0.154524520    -1.026970029
    256      1   1  0.000000    59.578174591     0.468131155    -0.077578485
    257      1   1  0.000000    59.606987000    -1.162027121    -0.573825657
    258      1   2  0.000000    59.617683411    -0.137399837    -1.007609844
    259      1   1  0.000000    61.530563354     0.820808887    -0.340868920
    260      1   1  0.000000    61.466541290    -0.897580028    -0.051261030
    261      1   2  0.000000    61.583000183    -0.155908123    -0.891743124
    262      1   1  0.000000    63.364856720     0.515878797     0.474720567
    263      1   1  0.000000    63.401943207    -1.070595622     0.404678881
    264      1   2  0.000000    63.337844849    -0.249061808    -0.327122986
    265      1   1  0.000000    65.041938782     0.736315370    -0.405096740
    266      1   1  0.000000    65.106094360    -1.211146593    -0.636721313
    267      1   2  0.000000    65.065971375    -0.176653638    -1.027721524
    268      1   1  0.000000    66.799171448     0.725356579     0.352563143
    269      1   1  0.000000    66.807121277    -0.881601930     0.405627877
    270      1   2  0.000000    66.812881470    -0.103434637    -0.391396940
    271      1   1  0.000000    68.575057983     0.592568874    -0.234940618
    272      1   1  0.000000    68.579605103    -1.259450793    -0.650403202
    273      1   2  0.000000    68.573356628    -0.208676904    -0.991773546
    274      1   1  0.000000    70.358390808     0.759398460     0.311258972
    275      1   1  0.000000    70.326530457    -0.842597663     0.425667435
    276      1   2  0.000000    70.336708069    -0.095549181    -0.401996374
    277      1   1  0.000000    72.137260437     0.675585806    -0.370930582
    278      1   1  0.000000    72.057632446    -1.210003376    -0.540353835
    279      1   2  0.000000    72.092086792    -0.215930670    -1.024582267
    280      1   1  0.000000    73.881889343     0.501798153     0.345382601
    281      1   1  0.000000    73.836448669    -1.101659298     0.314367026
    282      1   2  0.000000    73.856452942    -0.288438737    -0.433373690
    283      1   1  0.000000    75.612976074     0.857969463    -0.684830248
    284      1   1  0.000000    75.696754456    -0.850245178    -0.143064544
    285      1   2  0.000000    75.592666626    -0.189321250    -1.049884796
    286      1   1  0.000000    77.494529724     0.449407816    -0.070791289
    287      1   1  0.000000    77.537826538    -1.195345998    -0.566339374
    288      1   2  0.000000    77.544692993    -0.171962112    -0.980952203
    289      1   1  0.000000    79.427619934     0.827388227    -0.348814070
    290      1   1  0.000000    79.370994568    -0.907233357    -0.033639845
    291      1   2  0.000000    79.493934631    -0.159238681    -0.868595004
    292      1   1  0.000000    81.190559387     0.525617540     0.560165823
    293      1   1  0.000000    81.278526306    -1.085442066     0.445190400
    294      1   2  0.000000    81.186447144    -0.231318489    -0.244034395
    295      1   1  0.000000    82.786384583     0.928632021    -0.405064195
    296      1   1  0.000000    82.947364807    -1.090052485    -0.600899994
    297      1   2  0.000000    82.805664063    -0.044024158    -0.919802308
    298      1   1  0.000000    84.505012512     0.689579546     0.540971756
    299      1   1  0.000000    84.891624451    -0.886797905    -0.092936143
    300      1   2  0.000000    84.394195557     0.064422138    -0.378562748
    301      1   1  0.000000    85.068008423     0.467989832    -1.167273879
    302      2   3 -0.820000    39.599712372   -16.111860275   -16.465620041
    303      2   1  0.410000    39.477214813   -15.159589767   -16.407764435
    304      2   1  0.410000    39.464252472   -16.499301910   -15.594897270
    305      3   3 -0.820000    35.599712372   -16.111860275   -16.465620041
    306      3   1  0.410000    35.477214813   -15.159589767   -16.407764435
    307      3   1  0.410000    35.464252472   -16.499301910   -15.594897270
    308      4   3 -0.820000    31.599712372   -16.111860275   -16.465620041
    309      4   1  0.410000    31.477214813   -15.159589767   -16.407764435
    310      4   1  0.410000    31.464252472   -16.499301910   -15.594897270
    311      5   3 -0.820000    27.599712372   -16.111860275   -16.465620041
    312      5   1  0.410000    27.477214813   -15.159589767   -16.407764435
    313      5   1  0.410000    27.464252472   -16.499301910   -15.594897270
    314      6   3 -0.820000    23.599712372   -16.111860275   -16.465620041
    315      6   1  0.410000    23.477214813   -15.159589767   -16.407764435
    316      6   1  0.410000    23.464252472   -16.499301910   -15.594897270
    317      7   3 -0.820000    19.599712372   -16.111860275   -16.465620041
    318      7   1  0.410000    19.477214813   -15.159589767   -16.407764435
    319      7   1  0.410000    19.464252472   -16.499301910   -15.594897270
    320      8   3 -0.820000    15.599713326   -16.111860275   -16.465620041
    321      8   1  0.410000    15.477215767   -15.159589767   -16.407764435
    322      8   1  0.410000    15.464252472   -16.499301910   -15.594897270
    323      9   3 -0.820000    11.599713326   -16.111860275   -16.465620041
    324      9   1  0.410000    11.477215767   -15.159589767   -16.407764435
    325      9   1  0.410000    11.464252472   -16.499301910   -15.594897270
    326     10   3 -0.820000     7.599713326   -16.111860275   -16.465620041
    327     10   1  0.410000     7.477215290   -15.159589767   -16.407764435
    328     10   1  0.410000     7.464252472   -16.499301910   -15.594897270
    329     11   3 -0.820000     3.599713326   -16.111860275   -16.465620041
    330     11   1  0.410000     3.477215528   -15.159589767   -16.407764435
    331     11   1  0.410000     3.464252710   -16.499301910   -15.594897270
    332     12   3 -0.820000    -0.400286674   -16.111860275   -16.465620041
    333     12   1  0.410000    -0.522784531   -15.159589767   -16.407764435
    334     12   1  0.410000    -0.535747409   -16.499301910   -15.594897270
    335     13   3 -0.820000    -4.400286674   -16.111860275   -16.465620041
    336     13   1  0.410000    -4.522784710   -15.159589767   -16.407764435
    337     13   1  0.410000    -4.535747528   -16.499301910   -15.594897270
    338     14   3 -0.820000    -8.400286674   -16.111860275   -16.465620041
    339     14   1  0.410000    -8.522784233   -15.159589767   -16.407764435
    340     14   1  0.410000    -8.535747528   -16.499301910   -15.594897270
    341     15   3 -0.820000   -12.400286674   -16.111860275   -16.465620041
    342     15   1  0.410000   -12.522784233   -15.159589767   -16.407764435
    343     15   1  0.410000   -12.535747528   -16.499301910   -15.594897270