LAMMPS (24 Apr 2013)
WARNING: OMP_NUM_THREADS environment is not set. (../comm.cpp:100)
  using 1 OpenMP thread(s) per MPI task
# LAMMPS 2005 MD Simulation Parameters - Generated by XenoView
# Structure file "C:\Users\laflij\Dropbox\Xenoview\34m.lmp"
# Source force field file pcff_d.frc

# Define units and force field
units		real
atom_style	full
boundary	p p p
kspace_style	pppm 0.0001

# Read system data
read_restart	confout-2.data
  orthogonal box = (-80.503 -16.1006 -16.1006) to (80.503 16.1006 16.1006)
  1 by 1 by 1 MPI processor grid
  12061 atoms
  8140 bonds
  4517 angles
  888 dihedrals
  397 impropers
  4 = max # of 1-2 neighbors
  6 = max # of 1-3 neighbors
  12 = max # of 1-4 neighbors
  16 = max # of special neighbors

# Write (hopefully folded) structure out
dump            icrd all custom 1 system-3.lammpstrj id mol type x y z ix iy iz
dump_modify     icrd sort id
run             1
WARNING: No fixes defined, atoms won't move (../verlet.cpp:54)
PPPM initialization ...
  G vector (1/distance) = 0.257678
  grid = 60 18 18
  stencil order = 5
  estimated absolute RMS force accuracy = 0.0342072
  estimated relative force accuracy = 0.000103014
  using double precision FFTs
  3d grid and FFT values/proc = 40625 19440
Memory usage per processor = 59.2215 Mbytes
Step Temp E_pair E_mol TotEng Press 
  205002    202.49622   -23281.087   -140.40816   -16142.045    4266.9263 
  205003    202.49622   -23281.087   -140.40816   -16142.045    4266.9263 
Loop time of 0.129927 on 1 procs (1 MPI x 1 OpenMP) for 1 steps with 12061 atoms

Pair  time (%) = 0.094986 (73.1072)
Bond  time (%) = 0.00238299 (1.8341)
Kspce time (%) = 0.00993395 (7.6458)
Neigh time (%) = 0 (0)
Comm  time (%) = 0.000266075 (0.204788)
Outpt time (%) = 0.022284 (17.1512)
Other time (%) = 7.39098e-05 (0.0568856)

FFT time (% of Kspce) = 0.00247052 (24.8695)
FFT Gflps 3d (1d only) = 1.5541 2.27837

Nlocal:    12061 ave 12061 max 12061 min
Histogram: 1 0 0 0 0 0 0 0 0 0
Nghost:    30184 ave 30184 max 30184 min
Histogram: 1 0 0 0 0 0 0 0 0 0
Neighs:    3.14745e+06 ave 3.14745e+06 max 3.14745e+06 min
Histogram: 1 0 0 0 0 0 0 0 0 0

Total # of neighbors = 3147451
Ave neighs/atom = 260.961
Ave special neighs/atom = 2.24608
Neighbor list builds = 0
Dangerous builds = 0

# Reset the timestep
undump         	icrd

# Timestep and Neighbour searching
timestep	1.5
neighbor	2.0 bin
neigh_modify	every 1 delay 4 check yes

# Groups
group 		end id 3 6 9
3 atoms in group end

# Computes
#compute rdf all rdf 100 1 1 1 2 2 2
#compute msd all msd com yes

# Fixes
fix		1 all shake 0.0001 20 0 b 3 a 4
  0 = # of size 2 clusters
  0 = # of size 3 clusters
  0 = # of size 4 clusters
  3920 = # of frozen angles
fix		2 all npt temp 300.0 300.0 100.0 iso 1.0 1.0 100.0
fix 		drag end drag 100 0.0 0.0 5.0 2.0
#fix		 rdf all ave/time 1 500000 500000 c_rdf file rdf.xvg mode vector
#fix		 msd all ave/time 1 500000 500000 c_msd file msd.xvg mode vector

# Write out thermodynamic information
thermo_style    custom step temp press vol pe ke etotal
thermo	        250

# Write out trajectory
dump            cxtc all xtc 250 traj-3.xtc

# Write out velocity
#dump 		 1 all custom 1 vel_npt.txt vx vy vz

# Checkpoint files
restart         5000 state_cpt-*.data

# Final run command
run             100000
PPPM initialization ...
  G vector (1/distance) = 0.257678
  grid = 60 18 18
  stencil order = 5
  estimated absolute RMS force accuracy = 0.0342072
  estimated relative force accuracy = 0.000103014
  using double precision FFTs
  3d grid and FFT values/proc = 40625 19440
Memory usage per processor = 59.5512 Mbytes
Step Temp Press Volume PotEng KinEng TotEng 
  205003    300.01283   -56.121438    166950.11   -23421.503    7279.4495   -16142.053 
  205250    303.80224   -135.35361    167660.68   -23478.712    7371.3948   -16107.317 
  205500    299.90091    164.89065    166074.32   -23521.277    7276.7338   -16244.543 
  205750    300.91882   -143.87881    167042.47   -23569.808    7301.4322   -16268.376 
  206000    299.59887    88.551279    167613.77   -23591.789    7269.4051   -16322.384 
  206250    304.64176   -28.743911    166458.16   -23656.553    7391.7648   -16264.788 
  206500    299.15141   -7.9773675    167214.46   -23611.069    7258.5481   -16352.521 
  206750    295.48195    4.8890659    167309.01   -23551.421    7169.5132   -16381.908 
  207000     301.2469   -155.41608    168374.48   -23437.923    7309.3926    -16128.53 
  207250    297.75865   -45.106611    167035.46   -23561.433    7224.7545   -16336.678 
  207500    300.65101    283.71973    167838.97   -23492.628    7294.9341   -16197.693 
  207750    297.16518    87.195289    167298.78   -23626.211    7210.3548   -16415.857 
  208000    301.63825    13.392008    167655.55    -23479.94    7318.8884   -16161.052 
  208250    301.07955    57.495117    166862.54    -23649.12    7305.3322   -16343.788 
  208500    303.26695   -85.792769    166365.28   -23633.019    7358.4066   -16274.613 
  208750    297.61651    -174.9174     166943.6   -23673.165    7221.3057    -16451.86 
  209000    298.74483    4.2731619    168288.11   -23433.296    7248.6829   -16184.613 
  209250    297.72308   -97.857651    169673.75   -23370.595    7223.8915   -16146.704 
  209500    301.40381   -113.98175    170710.13   -23190.952    7313.1999   -15877.753 
  209750    294.76238    39.768074    169212.95   -23405.277    7152.0536   -16253.223 
  210000    301.63808    55.129729    170137.16   -23266.654    7318.8843    -15947.77 
  210250     297.5535     39.67807    169068.89   -23385.627    7219.7768    -16165.85 
  210500    300.20503   -196.14477    170453.78   -23167.403     7284.113    -15883.29 
  210750    298.93392   -33.581443    168673.31   -23280.289     7253.271   -16027.018 
  211000    301.50322   -130.69487    169047.64   -23415.035    7315.6119   -16099.423 
  211250    297.91638    44.976347    167566.25   -23472.258    7228.5817   -16243.677 
  211500    301.69265    46.481803    168791.23   -23347.973    7320.2084   -16027.764 
  211750     300.6295    59.606938    168895.38    -23271.08    7294.4121   -15976.667 
  212000    297.08194   -48.107064    167054.74   -23484.309    7208.3348   -16275.975 
  212250    301.79811   -14.070641    166878.21   -23473.426    7322.7671   -16150.659 
  212500    297.30604   -189.85736    167181.79   -23538.658    7213.7724   -16324.885 
  212750    299.75639    9.2789196    166734.75   -23484.011    7273.2273   -16210.783 
  213000    301.04387    413.46588    166086.23   -23489.829    7304.4663   -16185.362 
  213250    299.67936   -29.139997    167515.51   -23423.982    7271.3583   -16152.623 
  213500    301.57904    99.113603    166105.21   -23494.982    7317.4517   -16177.531 
  213750    302.22229   -95.185125    167274.39   -23416.285    7333.0592   -16083.225 
  214000    303.48372   -74.239575    167630.68   -23384.065    7363.6663   -16020.398 
  214250    298.83546    173.80481    167591.63   -23401.394    7250.8819   -16150.512 
  214500    303.31558    65.885929    168326.08   -23176.265    7359.5868   -15816.679 
  214750    303.48073    5.8223011    168568.93   -23333.403     7363.594   -15969.809 
  215000    298.07407    60.532339     167199.6   -23419.797    7232.4079   -16187.389 
  215250    305.41854    55.497333       167749   -23370.893    7410.6124   -15960.281 
  215500     298.4177    106.50984    167331.37   -23488.493    7240.7455   -16247.748 
  215750    299.36128   -85.009452    167538.99   -23297.838    7263.6404   -16034.198 
  216000    298.10556   -21.801211    167496.56    -23486.59    7233.1718   -16253.418 
  216250    292.96232   -79.547863    166790.07   -23542.068    7108.3773    -16433.69 
  216500      300.395    108.42628    167830.93    -23454.19    7288.7224   -16165.468 
  216750    297.12721   -18.494356    167677.03   -23466.401    7209.4333   -16256.967 
  217000    302.57101    24.118488    167595.67   -23416.844    7341.5207   -16075.323 
  217250    305.17635    44.435642    168074.01   -23321.445    7404.7361   -15916.709 
  217500    300.96467    86.150218    167649.94   -23386.784    7302.5446   -16084.239 
  217750    300.29033    100.70007    169419.19    -23159.61    7286.1827   -15873.427 
  218000    297.48188   -166.95632    168266.84   -23284.402     7218.039   -16066.363 
  218250    302.11949    51.134929    166899.37   -23437.618    7330.5649   -16107.053 
  218500    295.39915   -125.37989    167464.46   -23355.106    7167.5039   -16187.602 
  218750    303.63145   -103.97805    168179.69   -23364.953    7367.2509   -15997.702 
  219000    296.32155   -102.96855    168222.53   -23391.778    7189.8849   -16201.894 
  219250    300.20813   -9.5273692     167503.8   -23323.037    7284.1881   -16038.848 
  219500    299.68126   -45.630961    168464.06   -23323.954    7271.4044    -16052.55 
  219750     301.0055    7.8443638    167270.37   -23479.469    7303.5353   -16175.934 
  220000     304.1717    160.23286    166975.38   -23429.968    7380.3595   -16049.608 
  220250    301.79632    248.39468    167440.39    -23291.51    7322.7237   -15968.786 
  220500     297.8038    54.947737    167679.39   -23420.991    7225.8501   -16195.141 
  220750    304.10292   -59.994427    169203.22   -23342.738    7378.6906   -15964.047 
  221000    297.21476    -27.07869    168750.23   -23327.282    7211.5577   -16115.724 
  221250      297.693   -228.75452    168440.95   -23357.648    7223.1615   -16134.486 
  221500    296.96767    79.802035     167630.2   -23357.358    7205.5622   -16151.796 
  221750    300.77963   -66.326844    167838.93   -23323.153     7298.055   -16025.098 
  222000    301.15735   -147.99035    167221.58   -23543.482    7307.2199   -16236.262 
  222250    300.55853    26.847336    167395.93   -23357.791    7292.6903     -16065.1 
  222500    295.59392   -202.65701     166612.9   -23603.434      7172.23   -16431.204 
  222750    299.24712    52.369017    166494.16   -23502.088    7260.8704   -16241.217 
  223000    301.22463   -222.09855    168510.55   -23321.999    7308.8524   -16013.146 
  223250     300.6186    265.72155    167193.25   -23337.111    7294.1477   -16042.963 
  223500    295.89507    62.348585    168215.84   -23377.091    7179.5369   -16197.554 
  223750    302.58893    163.99272    167650.15   -23319.361    7341.9554   -15977.406 
  224000    300.13221    105.50709     168068.7   -23364.902     7282.346   -16082.556 
  224250    298.12563     26.83294    169216.68   -23302.738    7233.6588   -16069.079 
  224500    302.78551    36.550221    168885.77   -23264.433    7346.7252   -15917.707 
  224750    303.48092    54.181546    168618.53   -23341.371    7363.5985   -15977.772 
  225000    294.80226    39.798382    166922.17   -23422.756    7153.0212   -16269.735 
  225250    300.66602    67.620744    166612.59   -23421.582    7295.2982   -16126.284 
  225500    297.92817    -124.6536    167678.05     -23353.7    7228.8677   -16124.832 
  225750    301.04651    261.28751    165829.49    -23528.62    7304.5305    -16224.09 
  226000    299.56486   -110.32905    168369.42   -23317.415    7268.5801   -16048.835 
  226250     299.8406    39.946003    167866.28   -23311.559    7275.2704   -16036.288 
  226500    298.85635     25.22909     166144.4   -23499.809    7251.3888    -16248.42 
  226750    302.45601   -41.075823    167588.25   -23422.613    7338.7302   -16083.882 
  227000     296.8868    75.421575    166838.11   -23576.368       7203.6   -16372.768 
  227250    298.98652   -31.806084    168136.31   -23370.671    7254.5472   -16116.123 
  227500    297.42112    32.053491    168155.38   -23369.917    7216.5647   -16153.352 
  227750      302.075   -100.58415    168112.82   -23358.271    7329.4854   -16028.785 
  228000    300.42979    -50.95272    167811.73    -23416.22    7289.5665   -16126.654 
  228250    304.33647   -90.729203    169207.26   -23223.421    7384.3574   -15839.064 
  228500    299.90778    47.271182    166112.64   -23506.278    7276.9005   -16229.378 
  228750    298.85591    46.409834     166058.8     -23521.5    7251.3782   -16270.122 
  229000    298.99951   -54.987041    167719.59   -23359.398    7254.8624   -16104.536 
  229250     295.6739    87.542987    166837.56   -23434.251    7174.1706    -16260.08 
  229500    298.83807   -23.348612    166647.52   -23404.063    7250.9452   -16153.118 
  229750    298.49527    91.236791    166718.07   -23491.605    7242.6278   -16248.977 
  230000    299.45123    55.107655    167863.53   -23305.482    7265.8229   -16039.659 
  230250    296.32378    135.77549    167164.23    -23420.35    7189.9391   -16230.411 
  230500    304.85125    164.94365    166908.48   -23416.779     7396.848   -16019.931 
  230750     302.5884    101.56342     166279.7   -23434.156    7341.9426   -16092.213 
  231000    301.62811    247.85923    165188.68   -23665.198    7318.6424   -16346.555 
  231250    303.43905    33.151129    166770.38   -23469.096    7362.5825   -16106.513 
  231500    302.77737     137.5806    166010.99   -23602.355    7346.5277   -16255.827 
  231750    300.11326    157.61641    167866.28   -23259.862    7281.8863   -15977.976 
  232000    300.06734   -53.271588    167289.05    -23463.29    7280.7722   -16182.518 
  232250    303.62009   -24.646192    168300.42   -23277.859    7366.9753   -15910.884 
  232500    302.45913   -25.129345    166766.09   -23535.716    7338.8059    -16196.91 
  232750     295.9326     299.0676    165560.59   -23519.958    7180.4477    -16339.51 
  233000    294.97711    12.727284    167006.75   -23506.376    7157.2637   -16349.112 
  233250    298.95336    68.283048    167045.87   -23386.597    7253.7427   -16132.854 
  233500     307.8542    232.02164    167226.72   -23354.345    7469.7109   -15884.634 
  233750    295.59372    -181.3025    167936.99    -23324.18    7172.2251   -16151.955 
  234000     300.7947    78.016263    166259.72   -23495.675    7298.4205   -16197.255 
  234250    307.40378    38.597645    167894.73   -23376.807    7458.7818   -15918.025 
  234500    300.98531   -11.682738    166659.26   -23508.968    7303.0455   -16205.923 
  234750     300.7268   -1.5849612    165784.27   -23532.241     7296.773   -16235.468 
  235000    299.62687  -0.70211099    166252.83   -23506.619    7270.0847   -16236.534 
  235250     298.7927     132.7647    165731.77   -23465.682    7249.8444   -16215.838 
  235500    300.08362    82.391416    166561.73   -23453.671     7281.167   -16172.504 
  235750    299.16137   -263.52621    166981.37   -23535.223    7258.7898   -16276.433 
  236000     296.3601   -198.42902    167574.06   -23496.041    7190.8204   -16305.221 
  236250    301.85655    157.53757     166990.1   -23356.264     7324.185   -16032.079 
  236500    301.79942    59.517572    166926.25   -23466.517     7322.799   -16143.718 
  236750    300.07939    26.550154    166508.33   -23587.689    7281.0645   -16306.625 
  237000    302.26145   -14.458228    166061.79   -23487.527    7334.0094   -16153.517 
  237250    298.43814    -9.640936     166440.9   -23510.336    7241.2415   -16269.094 
  237500    299.69986    -13.56431    166190.16   -23473.328    7271.8555   -16201.473 
  237750    301.34954   -56.687254    167730.35   -23307.364    7311.8832    -15995.48 
  238000    301.85542   -79.124601    167958.87   -23358.935    7324.1577   -16034.777 
  238250    300.73284   -171.24556    166393.77   -23539.158    7296.9195   -16242.239 
  238500    304.67612     -121.076    165958.28   -23633.346    7392.5986   -16240.747 
  238750    300.45446    88.016839    166612.04   -23543.322    7290.1651   -16253.157 
  239000    303.37805    61.244902     167779.4   -23388.062    7361.1024   -16026.959 
  239250    298.47996    152.24085    167073.83   -23426.994    7242.2561   -16184.738 
  239500    299.47391    97.444527    166310.95   -23446.985    7266.3733   -16180.612 
  239750    306.02008    18.220322    166921.98   -23431.252    7425.2082   -16006.043 
  240000    299.67154    9.3305476    167782.21   -23308.781    7271.1686   -16037.613 
  240250    298.20913    105.80374    167589.98    -23429.74    7235.6848   -16194.055 
  240500    307.38879    209.84624    167019.27   -23390.128    7458.4183   -15931.709 
  240750    299.24189    110.92106    166456.41   -23465.142    7260.7435   -16204.398 
  241000    302.51316   -97.366385     167998.3   -23278.768     7340.117   -15938.651 
  241250    300.63619     112.6836    166751.69    -23472.11    7294.5746   -16177.535 
  241500    303.32245    100.28854    167005.47   -23438.463    7359.7534    -16078.71 
  241750    297.60787     56.66436    166234.08   -23556.558     7221.096   -16335.462 
  242000    298.81715   -118.48396    167763.26    -23364.37    7250.4378   -16113.932 
  242250    296.41883   -78.072775    168782.77   -23365.079    7192.2454   -16172.833 
  242500    297.32518    21.403148    166939.09   -23466.566    7214.2369   -16252.329 
  242750    300.67998    74.391321    166136.29   -23593.259    7295.6369   -16297.622 
  243000    297.82821    157.80841    167158.53   -23393.951    7226.4423   -16167.509 
  243250    295.40608    61.011815     166551.7   -23429.545    7167.6723   -16261.872 
  243500    298.74033   -29.354991    166682.13     -23391.9    7248.5737   -16143.327 
  243750     303.3795   -84.227383    168617.69   -23290.961    7361.1375   -15929.824 
  244000    296.99569    145.94695    168111.84   -23251.441    7206.2422   -16045.199 
  244250    298.99763   -84.799889    166845.89   -23517.614    7254.8169   -16262.798 
  244500    298.72325    26.428736    167510.32    -23409.72    7248.1592   -16161.561 
  244750    298.50825   -30.414784    166763.98   -23448.147    7242.9426   -16205.205 
  245000    299.09347   -8.6439803    166928.25   -23444.709    7257.1424   -16187.567 
  245250    301.93771   -44.001131    167714.36   -23378.608    7326.1543   -16052.454 
  245500      298.003     12.48777    167804.92   -23300.553    7230.6834    -16069.87 
  245750    298.97072   -49.794459    168362.77   -23309.868     7254.164   -16055.704 
  246000    298.54236   -52.202129    167312.02    -23402.26    7243.7703    -16158.49 
  246250    300.68371   -43.553866    166929.31   -23418.224    7295.7276   -16122.496 
  246500    300.21858    32.766365    166971.84   -23460.049    7284.4418   -16175.607 
  246750    301.90231    67.066684    167116.03   -23401.952    7325.2954   -16076.657 
  247000    295.75294   -5.5209551    167544.83   -23419.572    7176.0884   -16243.483 
  247250    296.95052    4.0785848    166830.53   -23495.771    7205.1461   -16290.624 
  247500    302.69518   -29.879894    167589.71   -23406.391    7344.5336   -16061.858 
  247750    299.54622    103.69479    167438.58   -23464.761    7268.1278   -16196.633 
  248000     297.1588     17.71904     168346.7   -23285.845    7210.1999   -16075.645 
  248250    302.19194    24.939829    166596.47   -23421.496     7332.323   -16089.173 
  248500    298.00896    -137.8235    167776.25   -23394.593    7230.8281   -16163.765 
  248750    297.97477   -137.16613    168503.09   -23308.408    7229.9984    -16078.41 
  249000    296.53643   -222.90656     167535.5   -23486.503    7195.0987   -16291.405 
  249250    300.24255   -115.43732    168224.71   -23335.869    7285.0233   -16050.845 
  249500    294.72289   -42.484696    166964.14   -23422.456    7151.0954   -16271.361 
  249750    300.08243    69.384871    165822.44   -23583.493    7281.1382   -16302.355 
  250000    304.52018    81.227903    167084.06   -23497.068    7388.8149   -16108.253 
  250250     303.9941    203.52786    168362.35    -23276.41    7376.0501    -15900.36 
  250500    298.78339    24.710897    167866.38   -23430.094    7249.6187   -16180.475 
  250750    302.19797   -151.88704    169468.22   -23290.908    7332.4692   -15958.438 
  251000    299.31516   -84.603731    167857.88   -23423.604    7262.5213   -16161.083 
  251250    299.39659    -152.1493    169137.18   -23261.857    7264.4971    -15997.36 
  251500    297.56957    88.322575    166375.57   -23516.094    7220.1666   -16295.927 
  251750    298.64157    70.340613    168132.99   -23262.081    7246.1774   -16015.904 
  252000    296.93331   -120.88687     167562.2   -23446.203    7204.7285   -16241.475 
  252250    300.43235    132.89682    167944.18   -23260.119    7289.6286    -15970.49 
  252500     297.6057    32.562275    166683.14   -23411.187    7221.0432   -16190.143 
  252750    293.98774    22.609164     168115.1   -23295.958    7133.2578     -16162.7 
  253000    302.91655    76.422984    168053.22   -23342.898    7349.9047   -15992.994 
  253250    305.10858   -14.389643    168152.27    -23367.41    7403.0917   -15964.318 
  253500    304.39039    41.372867    167168.25   -23491.785    7385.6658   -16106.119 
  253750    294.05006    81.003436    167957.38   -23325.155    7134.7699   -16190.385 
  254000    298.49864    87.404638    167414.05   -23356.268    7242.7095   -16113.559 
  254250    303.56038    431.15574    165859.95   -23399.483    7365.5265   -16033.956 
  254500    299.45149   -145.50592    167403.95   -23511.915    7265.8291   -16246.086 
  254750    295.37915   -83.762135    168153.68   -23344.493    7167.0187   -16177.475 
  255000    304.26473    103.92155    167304.35   -23418.615    7382.6167   -16035.998 
  255250     298.8724   -174.26186    167948.01   -23408.978    7251.7782   -16157.199 
  255500    298.07147   -94.221965    168152.15    -23330.83    7232.3446   -16098.486 
  255750    299.36802    79.393769    167350.03   -23475.643     7263.804    -16211.84 
  256000    296.80496   -102.63318    167769.59   -23318.103    7201.6144   -16116.489 
  256250     299.8839   -1.7546608    167032.91   -23431.756    7276.3212   -16155.435 
  256500    298.84914   -80.856519    168820.87   -23237.612     7251.214   -15986.398 
  256750    295.59085   -385.43317    168498.25    -23404.22    7172.1554   -16232.065 
  257000    304.47148   -185.32447    168164.04   -23384.442    7387.6332   -15996.809 
  257250    308.06448    135.70097    167428.88    -23343.19    7474.8131   -15868.377 
  257500     302.3329    316.13802    166633.79   -23428.785     7335.743   -16093.042 
  257750    302.16722   -105.22066    168502.05   -23295.166     7331.723   -15963.443 
  258000    299.31342   -113.21959    167434.55   -23555.493     7262.479   -16293.014 
  258250    301.95327    79.845831    166092.04   -23451.027    7326.5319   -16124.495 
  258500    301.04901    20.068215    167184.55    -23430.02     7304.591   -16125.429 
  258750     298.9426   -161.97689    167485.92   -23439.748    7253.4816   -16186.266 
  259000    298.15112    51.015885    168118.59   -23297.883    7234.2773   -16063.606 
  259250    295.33347      125.512    166609.23   -23480.648    7165.9104   -16314.737 
  259500    302.82172    2.8255897    168574.21   -23356.952    7347.6038   -16009.348 
  259750    297.75683    128.10458    167831.77   -23418.909    7224.7103   -16194.198 
  260000    297.45637    224.39781    167991.54   -23347.298      7217.42   -16129.878 
  260250    302.39329    131.19788    167811.12   -23311.648    7337.2085   -15974.439 
  260500    299.14398   -44.207899    167179.11   -23527.826     7258.368   -16269.458 
  260750    299.44292    38.578232    167455.57   -23386.057    7265.6214   -16120.435 
  261000    302.40084    17.418102    166694.94   -23459.284    7337.3916   -16121.892 
  261250    297.76624   -196.40299    169427.25   -23207.225    7224.9387   -15982.286 
  261500     297.9938   -23.966373    168544.67     -23190.2    7230.4601    -15959.74 
  261750    301.02853   -59.659162       168544   -23240.639    7304.0941   -15936.544 
  262000    301.55983    26.376924    167782.82   -23429.646    7316.9857    -16112.66 
  262250    296.96528   -89.512799     167372.1   -23481.243    7205.5042   -16275.739 
  262500    300.85027    14.902281    167563.87   -23430.055     7299.769   -16130.286 
  262750    301.21577   -179.91977    168525.53   -23343.989    7308.6373   -16035.352 
  263000    299.33934    183.97287     168093.7    -23411.56    7263.1081   -16148.452 
  263250    294.71639   -136.30765    169268.54   -23228.778    7150.9378    -16077.84 
  263500    299.21481    28.858774     167884.5   -23360.037    7260.0865   -16099.951 
  263750    300.82373    117.99674    168267.39   -23276.556    7299.1251   -15977.431 
  264000    298.59272   -56.632284     165971.2   -23545.416    7244.9922   -16300.424 
  264250    299.20384   -102.14535     167894.1   -23299.191    7259.8203   -16039.371 
  264500    301.22366    90.281347    167333.79   -23359.139    7308.8288    -16050.31 
  264750    300.88011    39.251421    167131.07   -23476.201    7300.4929   -16175.708 
  265000    298.54449   -5.9468924     168791.3    -23292.55    7243.8219   -16048.728 
  265250    295.42734    42.401204    165961.52   -23549.849     7168.188   -16381.661 
  265500    299.35474    108.81301    165652.03   -23523.928    7263.4818   -16260.446 
  265750    299.73519     -102.968    167295.31   -23473.158     7272.713   -16200.445 
  266000    298.72334    179.62941    166732.97   -23566.845    7248.1614   -16318.683 
  266250    303.31355     47.64228    166695.43   -23483.443    7359.5376   -16123.905 
  266500    296.48403    35.746533    166741.31   -23501.855    7193.8274   -16308.028 
  266750        297.8   -70.659142       167344   -23348.453    7225.7578   -16122.695 
  267000    301.20738   -66.426986    167310.61   -23363.312    7308.4337   -16054.878 
  267250     289.9411    -47.12499     168523.2   -23258.956     7035.071   -16223.885 
  267500    299.22949   -74.646715    167963.95   -23384.927    7260.4425   -16124.485 
  267750    303.95426   -26.801412     166545.2   -23436.154    7375.0835    -16061.07 
  268000    295.71971   -67.706712    166901.21   -23477.636     7175.282   -16302.354 
  268250    300.96942   -69.724376    167331.51   -23492.106      7302.66   -16189.446 
  268500    301.19743   -28.054184    167643.36   -23225.756    7308.1925   -15917.564 
  268750    299.26125    -12.65076    166132.57    -23576.14    7261.2133   -16314.926 
  269000    305.04465    255.96468    166580.58   -23543.955    7401.5406   -16142.415 
  269250    300.93536    222.10739    167303.02   -23439.131    7301.8335   -16137.298 
  269500     300.3631    39.173317    168990.68   -23200.813    7287.9483   -15912.864 
  269750    297.18115    54.604618    168390.03   -23295.568    7210.7421   -16084.826 
  270000    297.24257   -21.338587    168057.15   -23356.526    7212.2324   -16144.293 
  270250    300.45915   -105.55117    167706.36   -23402.021    7290.2787   -16111.742 
  270500     297.2957    -24.16542     167228.6   -23325.928    7213.5215   -16112.407 
  270750    301.51703   -49.366718    167644.61   -23442.985    7315.9472   -16127.038 
  271000    301.63363    173.00225    167084.66   -23456.814    7318.7762   -16138.037 
  271250    300.75997   -169.79537    169576.98   -23304.311    7297.5778   -16006.733 
  271500     298.7057     151.1902     168113.3   -23197.597    7247.7335   -15949.863 
  271750    297.99766   -22.118341    166323.54   -23522.375    7230.5537   -16291.822 
  272000    297.42848    55.241331    166896.39   -23387.531    7216.7433   -16170.788 
  272250    302.30216   -78.656891    167848.95   -23355.418    7334.9972    -16020.42 
  272500    301.36536   -187.25307    167123.63   -23502.163    7312.2669   -16189.896 
  272750    298.97265    34.096711    166925.98   -23517.009    7254.2106   -16262.798 
  273000    297.21643    137.00892    167944.06    -23285.27    7211.5981   -16073.672 
  273250    295.09838    18.544132    168289.16   -23326.309    7160.2063   -16166.102 
  273500    298.91605    104.46099    167218.03   -23433.069    7252.8375   -16180.231 
  273750    301.83805    3.2860629       167528   -23377.779    7323.7363   -16054.043 
  274000    301.45266   -80.060714    168095.83   -23242.101    7314.3851   -15927.716 
  274250    303.69827    101.95985    168362.56    -23372.36    7368.8722   -16003.488 
  274500    298.07912   -77.608077    169125.68   -23307.022    7232.5303   -16074.492 
  274750    301.07681    -101.2865    167266.37   -23504.207    7305.2656   -16198.941 
  275000     303.9423   -57.749359    167132.89   -23460.737    7374.7933   -16085.944 
  275250     294.7337   -161.63915     167090.1   -23467.983    7151.3576   -16316.625 
  275500    298.64727   -80.522635    167871.21   -23406.173    7246.3159   -16159.857 
  275750    304.73757    -24.05487    168510.14   -23352.747    7394.0897   -15958.657 
  276000    302.71262   -34.589729    168093.52   -23357.961    7344.9567   -16013.004 
  276250    300.85225     201.0025    166903.78   -23367.566     7299.817   -16067.749 
  276500    299.99145   -15.235974    167544.01   -23353.487    7278.9306   -16074.556 
  276750    300.97784    17.608204    167423.19    -23485.88    7302.8642   -16183.016 
  277000    303.62368    132.95513     167381.8   -23395.567    7367.0624   -16028.505 
  277250    296.92527    210.48968    165905.44   -23496.933    7204.5336   -16292.399 
  277500    298.94948    209.15581    165986.49   -23439.975    7253.6486   -16186.327 
  277750     304.1964    101.37588    166703.78   -23342.441    7380.9587   -15961.482 
  278000    299.54034   -98.831631    166704.62   -23487.646    7267.9849   -16219.661 
  278250    297.79292    57.033044    166601.06   -23477.713     7225.586   -16252.127 
  278500    298.53088    76.472635    166683.31   -23512.393    7243.4917   -16268.901 
  278750    298.20198   -87.155646    166923.92   -23465.605    7235.5113   -16230.094 
  279000     303.6985  -0.40628377    166976.11    -23358.66    7368.8779   -15989.782 
  279250    296.19559   -32.696433    167843.17   -23340.681    7186.8286   -16153.852 
  279500    303.05844    77.347563    167144.19   -23393.747    7353.3475   -16040.399 
  279750    301.05948    50.163283    167351.46    -23404.18    7304.8452   -16099.335 
  280000    300.13127   -41.102949    167963.04   -23376.028    7282.3234   -16093.704 
  280250    301.37708   -243.44541    167932.44   -23416.736    7312.5512   -16104.185 
  280500    297.49336   -26.345017    167560.41    -23445.65    7218.3174   -16227.333 
  280750    303.41902   -66.889097    167606.74   -23403.591    7362.0965   -16041.494 
  281000    298.47187    186.42194    168232.26   -23173.839    7242.0599   -15931.779 
  281250    301.62385   -19.507353    168950.56   -23351.762    7318.5389   -16033.223 
  281500    296.50688   -53.587771    167813.54    -23510.34    7194.3819   -16315.958 
  281750    303.25561    117.86779    166939.43   -23409.954    7358.1315   -16051.822 
  282000    298.61491    -14.65744    166379.04   -23586.608    7245.5307   -16341.077 
  282250    301.42089    40.181786    168439.63   -23336.588    7313.6143   -16022.973 
  282500    296.74162   -3.4237084    167172.67   -23449.881    7200.0774   -16249.803 
  282750    299.08911   -120.36597    167570.36    -23357.19    7257.0364   -16100.154 
  283000    295.69205   -10.193661     167362.8   -23419.583    7174.6109   -16244.972 
  283250    299.73967    67.865172    167192.63   -23406.095    7272.8215   -16133.274 
  283500     302.8155    63.230848    167692.02   -23437.827    7347.4528   -16090.374 
  283750    297.19942   0.22267504    167524.61   -23411.576    7211.1855   -16200.391 
  284000    298.48975   -47.746917    166856.57   -23396.931    7242.4937   -16154.438 
  284250    297.19374     104.2665     166933.4   -23459.417    7211.0477    -16248.37 
  284500    301.15055    144.43315    167558.82   -23318.685    7307.0549    -16011.63 
  284750    301.49885    244.97185     167292.7   -23421.879    7315.5059   -16106.373 
  285000    298.65785    102.81072    167470.78   -23385.197    7246.5725   -16138.625 
  285250    305.41993    79.361458    167626.62   -23402.218    7410.6462   -15991.572 
  285500    300.99354   -27.111051     167008.7   -23391.677    7303.2451   -16088.432 
  285750    302.53655    93.498337    165572.91   -23604.568    7340.6845   -16263.883 
  286000    296.07536   -105.76087    167316.56   -23325.547    7183.9114   -16141.636 
  286250    299.68699    46.780006    166925.62   -23560.055    7271.5434   -16288.512 
  286500    299.48787   -161.91501    167906.86   -23337.933     7266.712   -16071.221 
  286750    296.96422    48.221531    166413.41   -23492.255    7205.4785   -16286.777 
  287000    301.56198   -97.849128    167371.95   -23383.198    7317.0376   -16066.161 
  287250      297.325    47.117526    167032.42   -23463.054    7214.2326   -16248.821 
  287500    299.80986    104.48917    166956.66   -23384.599    7274.5247   -16110.074 
  287750    300.57934   -6.3822057     168464.2   -23253.453    7293.1951   -15960.258 
  288000    298.71592   -198.24005    168569.54    -23385.23    7247.9815   -16137.248 
  288250    300.51998    66.576822    168875.24   -23200.033    7291.7549   -15908.278 
  288500    302.13387    59.794111    166486.42   -23510.918     7330.914   -16180.004 
  288750    303.96405   -32.490563    166308.12   -23565.604    7375.3211   -16190.283 
  289000    296.50728   -1.4654277    167735.42   -23414.773    7194.3914   -16220.382 
  289250    298.39323   -147.42353     168180.6   -23307.528    7240.1517   -16067.376 
  289500    301.09387   -77.194565    167617.28    -23368.15    7305.6796   -16062.471 
  289750    298.07554   -6.9078752    166734.93   -23527.519    7232.4434   -16295.076 
  290000    299.02437   -23.354458    168562.68   -23243.196    7255.4656    -15987.73 
  290250    300.46269   -221.81386    168629.56    -23370.13    7290.3647   -16079.765 
  290500    300.26651    219.91522    167961.04    -23323.93    7285.6046   -16038.325 
  290750    303.68786    6.5201343    168009.15   -23367.119    7368.6197   -15998.499 
  291000    299.87438    1.8646251    166556.47   -23575.014    7276.0902   -16298.924 
  291250    301.32478    184.39292    167434.75   -23401.336    7311.2824   -16090.054 
  291500    293.67765    44.046695    167207.52   -23420.512    7125.7339   -16294.778 
  291750    300.46469    33.090554    167381.62   -23404.519    7290.4132   -16114.106 
  292000    298.94726   -87.786299    167809.75   -23306.251    7253.5946   -16052.656 
  292250    299.40532    39.645354    167170.89   -23462.243     7264.709   -16197.534 
  292500    299.11781    30.867327    168632.11   -23285.429    7257.7329   -16027.696 
  292750    300.75494    -57.75415    167579.76     -23354.7    7297.4558   -16057.244 
  293000    300.61858    55.672696    167093.13   -23492.691    7294.1473   -16198.544 
  293250    299.85782    84.455207    168583.47   -23290.676    7275.6882   -16014.988 
  293500    301.09027    158.77498    168632.13   -23278.793    7305.5921   -15973.201 
  293750    303.72278   -103.19921     168699.3   -23347.644    7369.4668   -15978.177 
  294000    303.32111   -9.0934635    167433.72   -23387.835    7359.7209   -16028.114 
  294250    297.67395    25.821385    165361.33   -23588.116    7222.6992   -16365.417 
  294500    299.94043     183.9236    165058.41   -23611.129    7277.6927   -16333.437 
  294750     300.2839    17.046203    166495.87   -23428.095    7286.0266   -16142.069 
  295000    299.00857    162.11824    166374.94    -23548.21    7255.0824   -16293.127 
  295250    301.14592    78.228555    167888.67   -23317.709    7306.9425   -16010.766 
  295500    296.61929    -54.12194    168370.65   -23334.425    7197.1094   -16137.316 
  295750    298.48578   -5.9437903    168317.74   -23380.422    7242.3974   -16138.025 
  296000    300.92744    159.65124    167143.98   -23402.622    7301.6413    -16100.98 
  296250    293.11003    64.725653    166741.96   -23444.899    7111.9614   -16332.938 
  296500    299.69632    115.68341    168158.44   -23306.341    7271.7698   -16034.572 
  296750    299.29837    272.18813    167461.45   -23368.368    7262.1139   -16106.254 
  297000    300.47271   -30.118942    167213.82   -23422.685    7290.6079   -16132.077 
  297250    298.18165     114.9693    167767.71   -23430.032     7235.018   -16195.014 
  297500    296.91579   -16.779449    168704.98   -23372.108    7204.3035   -16167.804 
  297750    300.80425   -74.844109    168598.82   -23295.618    7298.6523   -15996.966 
  298000    297.78786    141.94469     166796.1   -23394.274    7225.4632   -16168.811 
  298250     293.2488   -190.32366    167233.07   -23497.537    7115.3284   -16382.208 
  298500    298.36608   -98.579424     166743.1   -23452.598    7239.4929   -16213.105 
  298750    299.84967   -75.992513    168420.91   -23379.308    7275.4905   -16103.817 
  299000    296.11733    24.478629    167137.49   -23455.663    7184.9297   -16270.733 
  299250    303.29091    56.951399    167742.56   -23332.021    7358.9881   -15973.032 
  299500    297.57977     19.62387    168340.01   -23326.275    7220.4142   -16105.861 
  299750      299.357    -52.77994     167905.8   -23351.289    7263.5366   -16087.752 
  300000     299.2477   -9.7669488    167476.31   -23454.643    7260.8844   -16193.759 
  300250    305.62497   -17.018939    168273.24   -23329.881    7415.6213    -15914.26 
  300500    301.76975   -26.877728    167359.25   -23481.241    7322.0791   -16159.162 
  300750     302.7246    83.338788    167949.26   -23315.847    7345.2473     -15970.6 
  301000    299.43318    -71.01681    167499.44   -23500.224     7265.385   -16234.839 
  301250    295.22576    168.34047    168383.24   -23303.252     7163.297   -16139.955 
  301500    299.31232   -112.37673    168476.45   -23332.539    7262.4524   -16070.086 
  301750    301.92208    96.454018    167150.84   -23350.339     7325.775   -16024.564 
  302000     298.8186   -270.64274    168661.23   -23304.252    7250.4729   -16053.779 
  302250    298.81438   -78.357215    167476.92   -23440.113    7250.3705   -16189.742 
  302500    298.08422   -40.251919    167834.59   -23402.215     7232.654   -16169.561 
  302750    300.89847    83.713087    167543.92   -23392.942    7300.9384   -16092.004 
  303000    302.99833    249.25489    167787.82   -23268.637    7351.8891   -15916.748 
  303250     299.6006   -155.62358    169141.64   -23374.837    7269.4473    -16105.39 
  303500    295.54406   -298.87828    168100.62   -23441.671    7171.0201   -16270.651 
  303750    295.23806    -144.3063    168051.58   -23373.924    7163.5955   -16210.329 
  304000    297.82361   -148.84938    167344.66   -23383.127    7226.3306   -16156.796 
  304250    299.16592    305.28393    165478.03   -23475.792    7258.9002   -16216.892 
  304500    301.85216   -23.953258    167246.86   -23411.028    7324.0786   -16086.949 
  304750    300.27963   -39.122583    168359.23   -23252.472     7285.923   -15966.549 
  305000    300.71229   -94.459646    166919.02   -23509.017    7296.4211   -16212.596 
  305003    299.40597   -76.792835    166931.87   -23480.777    7264.7247   -16216.052 
Loop time of 10375 on 1 procs (1 MPI x 1 OpenMP) for 100000 steps with 12061 atoms

Pair  time (%) = 7286.17 (70.2283)
Bond  time (%) = 120.364 (1.16014)
Kspce time (%) = 1005.28 (9.68944)
Neigh time (%) = 1021.51 (9.84591)
Comm  time (%) = 35.0991 (0.338305)
Outpt time (%) = 0.521156 (0.0050232)
Other time (%) = 906.033 (8.73287)

FFT time (% of Kspce) = 246.26 (24.4967)
FFT Gflps 3d (1d only) = 1.5591 2.30224

Nlocal:    12061 ave 12061 max 12061 min
Histogram: 1 0 0 0 0 0 0 0 0 0
Nghost:    30141 ave 30141 max 30141 min
Histogram: 1 0 0 0 0 0 0 0 0 0
Neighs:    3.14702e+06 ave 3.14702e+06 max 3.14702e+06 min
Histogram: 1 0 0 0 0 0 0 0 0 0

Total # of neighbors = 3147020
Ave neighs/atom = 260.925
Ave special neighs/atom = 2.24608
Neighbor list builds = 8953
Dangerous builds = 0
write_restart   confout-3.data
PPPM initialization ...
  G vector (1/distance) = 0.257681
  grid = 60 18 18
  stencil order = 5
  estimated absolute RMS force accuracy = 0.0342034
  estimated relative force accuracy = 0.000103002
  using double precision FFTs
  3d grid and FFT values/proc = 40625 19440
