ITEM: TIMESTEP
205002
ITEM: NUMBER OF ATOMS
12061
ITEM: BOX BOUNDS pp pp pp
-80.503 80.503
-16.1006 16.1006
-16.1006 16.1006
ITEM: ATOMS id mol type x y z ix iy iz 
1 1 1 6.23198 -13.0311 -2.81157 0 0 1 
2 1 1 6.43045 -12.0344 -4.30719 0 0 1 
3 1 2 5.93053 -12.135 -3.3255 0 0 1 
4 1 1 3.9083 -12.0405 -2.6784 0 0 1 
5 1 1 4.20456 -11.7477 -4.40923 0 0 1 
6 1 2 4.46541 -12.3293 -3.57277 0 0 1 
7 1 1 4.33698 -14.5063 -3.22177 0 0 1 
8 1 1 3.05239 -13.8662 -4.24775 0 0 1 
9 1 2 4.1566 -13.837 -4.02448 0 0 1 
10 1 1 4.94312 -15.4096 -5.17005 0 0 1 
11 1 1 6.10964 -14.1078 -4.79625 0 0 1 
12 1 2 5.07101 -14.3153 -5.1717 0 0 1 
13 1 1 4.8338 -12.608 -6.60293 0 0 1 
14 1 1 5.83578 -13.9445 -7.19112 0 0 1 
15 1 2 4.96725 -13.6974 -6.5822 0 0 1 
16 1 1 3.8668 -15.4501 -7.33061 0 0 1 
17 1 1 2.80222 -14.2123 -6.76859 0 0 1 
18 1 2 3.76801 -14.3527 -7.28025 0 0 1 
19 1 1 3.23954 -12.6876 -8.64572 0 0 1 
20 1 1 4.56076 -13.7122 -9.36031 0 0 1 
21 1 2 3.62193 -13.7286 -8.72691 0 0 1 
22 1 1 1.67742 -14.5965 -9.18523 0 0 1 
23 1 1 2.9808 -15.4491 -9.84912 0 0 1 
24 1 2 2.63768 -14.4616 -9.64422 0 0 1 
25 1 1 2.0356 -12.7899 -10.9421 0 0 1 
26 1 1 3.56772 -13.6243 -11.4116 0 0 1 
27 1 2 2.5361 -13.7418 -11.0272 0 0 1 
28 1 1 2.13999 -15.7084 -12.2539 0 0 1 
29 1 1 0.708362 -14.7296 -11.6501 0 0 1 
30 1 2 1.71267 -14.6377 -12.0669 0 0 1 
31 1 1 1.56065 -12.8391 -13.3692 0 0 1 
32 1 1 2.48099 -14.2548 -14.115 0 0 1 
33 1 2 1.61873 -13.9769 -13.4996 0 0 1 
34 1 1 0.146982 -15.3479 -14.4962 0 0 1 
35 1 1 -0.57553 -13.8882 -13.8291 0 0 1 
36 1 2 0.312747 -14.3044 -14.2548 0 0 1 
37 1 1 0.458316 -12.4806 -15.3717 0 0 1 
38 1 1 1.11769 -13.6313 15.9015 0 0 0 
39 1 2 0.316036 -13.5219 -15.6099 0 0 1 
40 1 1 -1.08682 -15.004 15.8205 0 0 0 
41 1 1 -1.78437 -13.5676 -15.6095 0 0 1 
42 1 2 -0.994118 -13.8917 15.8834 0 0 0 
43 1 1 -2.31131 -13.4862 14.3129 0 0 0 
44 1 1 -1.1368 -12.148 14.6076 0 0 0 
45 1 2 -1.25907 -13.2635 14.5053 0 0 0 
46 1 1 -0.408856 -13.3009 12.5198 0 0 0 
47 1 1 0.749941 -13.4899 13.8087 0 0 0 
48 1 2 -0.256156 -13.801 13.4785 0 0 0 
49 1 1 0.441761 -15.8503 12.4918 0 0 0 
50 1 1 -0.451118 -15.9754 14.0643 0 0 0 
51 1 2 -0.384478 -15.3517 13.1033 0 0 0 
52 1 1 -2.62604 -15.3666 12.9763 0 0 0 
53 1 1 -1.6977 -14.8026 11.5244 0 0 0 
54 1 2 -1.72626 -15.5308 12.3349 0 0 0 
55 1 1 -1.01004 15.3374 10.7626 0 -1 0 
56 1 1 -1.32983 14.5579 12.3641 0 -1 0 
57 1 2 -1.68031 15.3277 11.6167 0 -1 0 
58 1 1 -3.8417 14.8836 12.0141 0 -1 0 
59 1 1 -3.58842 16.0109 10.6393 0 -1 0 
60 1 2 -3.16897 15.0797 11.131 0 -1 0 
61 1 1 -2.72387 13.0927 10.4584 0 -1 0 
62 1 1 -2.75296 14.2884 9.12748 0 -1 0 
63 1 2 -3.26653 13.9624 10.1095 0 -1 0 
64 1 1 -5.24798 13.0254 10.6376 0 -1 0 
65 1 1 -5.51239 14.3197 9.61798 0 -1 0 
66 1 2 -4.82689 13.5855 9.83812 0 -1 0 
67 1 1 -4.29008 11.6902 8.93803 0 -1 0 
68 1 1 -5.99569 12.2707 8.71653 0 -1 0 
69 1 2 -4.91008 12.5826 8.64533 0 -1 0 
70 1 1 -3.63734 13.2733 6.93693 0 -1 0 
71 1 1 -4.949 12.1221 6.56487 0 -1 0 
72 1 2 -4.66263 12.9796 7.21004 0 -1 0 
73 1 1 -6.5151 14.1166 6.95131 0 -1 0 
74 1 1 -5.05836 15.0024 7.5308 0 -1 0 
75 1 2 -5.42469 14.255 6.84628 0 -1 0 
76 1 1 -3.96244 15.067 5.39508 0 -1 0 
77 1 1 -5.40689 14.294 4.70024 0 -1 0 
78 1 2 -5.04258 14.9022 5.55143 0 -1 0 
79 1 1 -6.4525 -15.9651 4.60548 0 0 0 
80 1 1 -6.16447 -15.601 6.2812 0 0 0 
81 1 2 -5.69172 -15.9034 5.40452 0 0 0 
82 1 1 -3.97985 -15.1969 4.15714 0 0 0 
83 1 1 -5.13148 -13.9046 4.62154 0 0 0 
84 1 2 -4.64061 -14.8708 5.04703 0 0 0 
85 1 1 -4.10034 -13.897 6.9201 0 0 0 
86 1 1 -3.09457 -15.3636 6.46218 0 0 0 
87 1 2 -3.5772 -14.4314 6.09364 0 0 0 
88 1 1 -1.74456 -14.1119 4.92433 0 0 0 
89 1 1 -2.86363 -12.6979 4.90852 0 0 0 
90 1 2 -2.43839 -13.5019 5.56763 0 0 0 
91 1 1 -0.902255 -12.1003 6.32165 0 0 0 
92 1 1 -2.26666 -12.3412 7.42181 0 0 0 
93 1 2 -1.63833 -12.843 6.69537 0 0 0 
94 1 1 -0.19526 -13.2477 8.22034 0 0 0 
95 1 1 -1.63026 -14.3441 8.28711 0 0 0 
96 1 2 -0.888772 -13.874 7.61442 0 0 0 
97 1 1 -0.291727 -15.4481 6.1062 0 0 0 
98 1 1 0.931937 -14.2572 6.52001 0 0 0 
99 1 2 0.0932319 -14.8859 6.95044 0 0 0 
100 1 1 -0.11343 -15.8422 8.81734 0 0 0 
101 1 1 0.741723 15.3454 7.78443 0 -1 0 
102 1 2 0.648679 -15.7718 8.02481 0 0 0 
103 1 1 2.69888 -15.4629 7.6472 0 0 0 
104 1 1 2.01479 -14.3029 8.87136 0 0 0 
105 1 2 2.00491 -15.3704 8.54523 0 0 0 
106 1 1 1.73507 15.9066 10.5157 0 -1 0 
107 1 1 2.82925 14.9228 9.4432 0 -1 0 
108 1 2 2.50951 15.9848 9.71635 0 -1 0 
109 1 1 4.39265 15.8735 10.9202 0 -1 0 
110 1 1 4.39244 -15.0457 9.59556 0 0 0 
111 1 2 3.74363 -15.5299 10.3743 0 0 0 
112 1 1 2.69971 -13.61 10.8158 0 0 0 
113 1 1 2.82739 -14.7361 12.2189 0 0 0 
114 1 2 3.3483 -14.3252 11.3176 0 0 0 
115 1 1 5.28485 -14.2723 11.9848 0 0 0 
116 1 1 5.02075 -12.797 11.1061 0 0 0 
117 1 2 4.49959 -13.4595 11.8463 0 0 0 
118 1 1 3.3334 -11.9236 13.0018 0 0 0 
119 1 1 3.86008 -13.3808 13.9729 0 0 0 
120 1 2 4.17916 -12.7066 13.1493 0 0 0 
121 1 1 6.11856 -12.5022 14.3652 0 0 0 
122 1 1 5.60986 -11.0858 13.5201 0 0 0 
123 1 2 5.24334 -11.914 14.0296 0 0 0 
124 1 1 3.93985 -10.6902 15.2299 0 0 0 
125 1 1 3.85274 -12.3279 15.7018 0 0 0 
126 1 2 4.59248 -11.5717 15.3324 0 0 0 
127 1 1 6.59319 -11.7603 -15.8019 0 0 1 
128 1 1 6.05164 -10.0925 -16.0604 0 0 1 
129 1 2 5.65483 -11.1522 -15.8152 0 0 1 
130 1 1 3.96266 -10.4796 -14.47 0 0 1 
131 1 1 4.79809 -12.0419 -14.2128 0 0 1 
132 1 2 4.97484 -11.0176 -14.4654 0 0 1 
133 1 1 6.70011 -10.7891 -13.1097 0 0 1 
134 1 1 6.07132 -9.21157 -13.7296 0 0 1 
135 1 2 5.75972 -10.2327 -13.4003 0 0 1 
136 1 1 4.72087 -11.2907 -11.8117 0 0 1 
137 1 1 3.91127 -9.79398 -12.4137 0 0 1 
138 1 2 4.90279 -10.2404 -12.1454 0 0 1 
139 1 1 6.50105 -10.0245 -10.6047 0 0 1 
140 1 1 5.90206 -8.48131 -11.5235 0 0 1 
141 1 2 5.64708 -9.55274 -11.0493 0 0 1 
142 1 1 3.70389 -8.78129 -10.1788 0 0 1 
143 1 1 4.64005 -9.71951 -9.14442 0 0 1 
144 1 2 4.7395 -9.02273 -9.9005 0 0 1 
145 1 1 4.53035 -7.32692 -8.44244 0 0 1 
146 1 1 5.30444 -6.91498 -9.94336 0 0 1 
147 1 2 5.20326 -7.72527 -9.26722 0 0 1 
148 1 1 7.32779 -8.06946 -9.41144 0 0 1 
149 1 1 6.91491 -6.729 -8.29996 0 0 1 
150 1 2 6.60576 -7.79498 -8.59811 0 0 1 
151 1 1 6.24662 -8.40304 -6.63593 0 0 1 
152 1 1 6.28783 -9.84861 -7.68027 0 0 1 
153 1 2 6.74858 -8.80685 -7.49704 0 0 1 
154 1 1 8.51529 -7.8103 -6.66831 0 0 1 
155 1 1 8.2659 -9.50651 -6.05865 0 0 1 
156 1 2 8.17853 -8.83391 -6.94964 0 0 1 
157 1 1 9.37509 -8.82456 -8.73824 0 0 1 
158 1 1 10.2517 -9.26443 -7.3042 0 0 1 
159 1 2 9.30404 -9.36102 -7.79592 0 0 1 
160 1 1 7.99941 -10.9933 -8.42374 0 0 1 
161 1 1 9.04443 -11.2998 -7.01472 0 0 1 
162 1 2 9.04193 -10.8424 -8.0145 0 0 1 
163 1 1 10.352 -10.8585 -9.81834 0 0 1 
164 1 1 11.046 -11.5025 -8.39307 0 0 1 
165 1 2 10.1469 -11.4137 -8.94773 0 0 1 
166 1 1 10.554 -13.2147 -10.127 0 0 1 
167 1 1 9.77356 -13.4491 -8.55209 0 0 1 
168 1 2 9.81126 -12.818 -9.44015 0 0 1 
169 1 1 7.72394 -13.4221 -9.35599 0 0 1 
170 1 1 8.00618 -12.2253 -10.7475 0 0 1 
171 1 2 8.45039 -13.0729 -10.1221 0 0 1 
172 1 1 9.43962 -14.2925 -11.7199 0 0 1 
173 1 1 8.657 -15.2623 -10.4643 0 0 1 
174 1 2 8.56946 -14.3389 -11.063 0 0 1 
175 1 1 6.44805 -14.6269 -11.5128 0 0 1 
176 1 1 7.02524 -13.4469 -12.577 0 0 1 
177 1 2 7.3913 -14.3712 -12.0208 0 0 1 
178 1 1 8.47867 -15.3067 -13.6801 0 0 1 
179 1 1 7.67081 15.7003 -12.6867 0 -1 1 
180 1 2 7.56145 -15.4624 -13.1507 0 0 1 
181 1 1 5.42871 -15.633 -13.506 0 0 1 
182 1 1 6.22297 -14.4724 -14.5998 0 0 1 
183 1 2 6.37456 -15.4221 -14.0685 0 0 1 
184 1 1 7.34957 16.0419 -15.9706 0 -1 1 
185 1 1 6.81063 14.6891 -14.9013 0 -1 1 
186 1 2 6.54961 15.7656 -15.2184 0 -1 1 
187 1 1 4.39678 15.1703 -15.6791 0 -1 1 
188 1 1 4.98546 -15.6653 15.7036 0 0 0 
189 1 2 5.28701 15.5336 16.0173 0 -1 0 
190 1 1 6.28769 15.2013 14.0591 0 -1 0 
191 1 1 6.25721 13.842 15.0474 0 -1 0 
192 1 2 5.6647 14.6687 14.7841 0 -1 0 
193 1 1 3.94446 13.4514 14.8531 0 -1 0 
194 1 1 3.75718 14.9821 13.8527 0 -1 0 
195 1 2 4.46409 14.1566 14.1476 0 -1 0 
196 1 1 5.31818 14.1723 12.2127 0 -1 0 
197 1 1 5.61594 12.6739 13.0237 0 -1 0 
198 1 2 4.82415 13.4359 12.8874 0 -1 0 
199 1 1 2.82213 12.6021 12.9732 0 -1 0 
200 1 1 3.17081 13.7492 11.6607 0 -1 0 
201 1 2 3.58193 12.9361 12.2426 0 -1 0 
202 1 1 4.84528 11.8511 10.839 0 -1 0 
203 1 1 4.08798 10.7441 12.0017 0 -1 0 
204 1 2 3.86546 11.7032 11.3823 0 -1 0 
205 1 1 1.8669 11.3698 10.4769 0 -1 0 
206 1 1 2.8238 12.2619 9.43187 0 -1 0 
207 1 2 2.8455 11.4693 10.1721 0 -1 0 
208 1 1 4.23427 10.2017 9.15236 0 -1 0 
209 1 1 3.26039 9.27194 10.3289 0 -1 0 
210 1 2 3.24168 10.1296 9.55042 0 -1 0 
211 1 1 1.25225 9.68732 9.01855 0 -1 0 
212 1 1 2.32742 8.62 8.21184 0 -1 0 
213 1 2 2.23054 9.64377 8.48961 0 -1 0 
214 1 1 1.24015 10.079 6.65674 0 -1 0 
215 1 1 1.91697 11.5296 7.45311 0 -1 0 
216 1 2 2.11083 10.4551 7.24646 0 -1 0 
217 1 1 4.19476 10.9149 6.49542 0 -1 0 
218 1 1 3.76283 9.29038 6.35305 0 -1 0 
219 1 2 3.2918 10.2888 6.28546 0 -1 0 
220 1 1 2.40383 9.46555 4.38674 0 -1 0 
221 1 1 2.2088 11.2064 4.57542 0 -1 0 
222 1 2 2.91901 10.4177 4.70574 0 -1 0 
223 1 1 4.9425 11.1381 4.30723 0 -1 0 
224 1 1 4.60713 9.54431 3.80994 0 -1 0 
225 1 2 4.17847 10.5574 3.84963 0 -1 0 
226 1 1 3.43699 10.3231 1.85133 0 -1 0 
227 1 1 3.62724 12.0277 2.27224 0 -1 0 
228 1 2 4.08397 10.9959 2.42691 0 -1 0 
229 1 1 6.02905 11.7558 2.47029 0 -1 0 
230 1 1 5.93575 10.123 1.72412 0 -1 0 
231 1 2 5.44032 11.0455 1.79054 0 -1 0 
232 1 1 5.08182 10.8483 -0.241941 0 -1 0 
233 1 1 4.52447 12.2691 0.189461 0 -1 0 
234 1 2 5.43027 11.6029 0.383807 0 -1 0 
235 1 1 7.2028 12.971 0.593353 0 -1 0 
236 1 1 7.59294 11.3301 0.195554 0 -1 0 
237 1 2 6.84719 12.0996 -0.0354302 0 -1 0 
238 1 1 5.99641 12.0454 -2.11052 0 -1 0 
239 1 1 6.7528 13.4372 -1.96832 0 -1 0 
240 1 2 6.90656 12.3961 -1.54751 0 -1 0 
241 1 1 8.30738 10.6853 -2.03256 0 -1 0 
242 1 1 7.98778 11.8177 -3.35994 0 -1 0 
243 1 2 8.14629 11.7469 -2.30159 0 -1 0 
244 1 1 9.49455 13.472 -1.84842 0 -1 0 
245 1 1 9.6981 12.174 -0.738087 0 -1 0 
246 1 2 9.45659 12.389 -1.81374 0 -1 0 
247 1 1 10.4676 10.5409 -2.32131 0 -1 0 
248 1 1 10.5167 11.6713 -3.67246 0 -1 0 
249 1 2 10.5358 11.622 -2.58067 0 -1 0 
250 1 1 12.0876 13.2651 -2.49733 0 -1 0 
251 1 1 12.3477 11.888 -1.29338 0 -1 0 
252 1 2 11.9988 12.195 -2.27153 0 -1 0 
253 1 1 13.5881 10.6307 -2.93746 0 -1 0 
254 1 1 12.9704 11.5957 -4.2088 0 -1 0 
255 1 2 13.2395 11.6756 -3.10365 0 -1 0 
256 1 1 14.1304 13.6757 -2.93577 0 -1 0 
257 1 1 14.7824 12.4352 -1.90337 0 -1 0 
258 1 2 14.4416 12.6351 -2.8718 0 -1 0 
259 1 1 16.1055 11.5378 -3.91931 0 -1 0 
260 1 1 15.2548 12.8619 -4.76691 0 -1 0 
261 1 2 15.5899 12.534 -3.81452 0 -1 0 
262 1 1 16.3369 14.4671 -3.23153 0 -1 0 
263 1 1 17.0801 13.0733 -2.31214 0 -1 0 
264 1 2 16.7405 13.4043 -3.27819 0 -1 0 
265 1 1 18.4954 12.3711 -4.33031 0 -1 0 
266 1 1 17.56 13.5705 -5.29572 0 -1 0 
267 1 2 17.968 13.3772 -4.28317 0 -1 0 
268 1 1 18.5404 15.5815 -3.93118 0 -1 0 
269 1 1 19.4183 14.3937 -2.99764 0 -1 0 
270 1 2 18.9292 14.5554 -3.95175 0 -1 0 
271 1 1 20.5115 13.533 -4.97197 0 -1 0 
272 1 1 19.4673 14.6493 -5.96289 0 -1 0 
273 1 2 20.0074 14.546 -4.99611 0 -1 0 
274 1 1 20.6703 -15.6834 -4.29368 0 0 0 
275 1 1 21.655 15.1751 -3.85236 0 -1 0 
276 1 2 21.1249 15.5707 -4.65183 0 -1 0 
277 1 1 21.5892 15.8107 -6.75599 0 -1 0 
278 1 1 22.7798 14.8746 -5.8248 0 -1 0 
279 1 2 22.1063 15.7776 -5.79963 0 -1 0 
280 1 1 22.4118 -14.3219 -6.0121 0 0 0 
281 1 1 23.6072 -14.9864 -4.85084 0 0 0 
282 1 2 23.0139 -15.1874 -5.75338 0 0 0 
283 1 1 24.6079 15.9939 -6.959 0 -1 0 
284 1 1 23.3232 -15.3147 -7.82586 0 0 0 
285 1 2 23.9857 -15.285 -6.95255 0 0 0 
286 1 1 25.6353 -14.3029 -8.06071 0 0 0 
287 1 1 24.3102 -13.1511 -7.40493 0 0 0 
288 1 2 24.9445 -14.0836 -7.17164 0 0 0 
289 1 1 25.3535 -13.1745 -5.16985 0 0 0 
290 1 1 26.3941 -14.4317 -5.68807 0 0 0 
291 1 2 25.8338 -13.617 -6.059 0 0 0 
292 1 1 27.3793 -12.9697 -7.41233 0 0 0 
293 1 1 26.175 -11.8101 -7.11064 0 0 0 
294 1 2 26.7846 -12.5986 -6.60752 0 0 0 
295 1 1 27.2888 -11.0939 -5.07593 0 0 0 
296 1 1 27.9703 -12.695 -4.75876 0 0 0 
297 1 2 27.7081 -11.9352 -5.56781 0 0 0 
298 1 1 28.5848 -10.7371 -7.06921 0 0 0 
299 1 1 29.6007 -10.6956 -5.61191 0 0 0 
300 1 2 29.0015 -11.3782 -6.29027 0 0 0 
301 1 1 29.6382 -12.135 -6.73125 0 0 0 
302 2 3 43.2635 -4.35453 -3.9871 0 -1 1 
303 2 1 44.0971 -4.78547 -4.18965 0 -1 1 
304 2 1 43.2586 -4.1034 -3.06059 0 -1 1 
305 3 3 38.5937 -8.8664 -7.43252 0 1 1 
306 3 1 38.7847 -8.8175 -8.37201 0 1 1 
307 3 1 38.0679 -9.65097 -7.26091 0 1 1 
308 4 3 44.4252 -12.068 7.1608 0 1 -1 
309 4 1 45.165 -12.5966 7.46857 0 1 -1 
310 4 1 44.7326 -11.1776 6.97613 0 1 -1 
311 5 3 40.6877 5.39211 10.7321 0 -1 -1 
312 5 1 40.7255 5.17622 9.79747 0 -1 -1 
313 5 1 41.2299 4.76747 11.2193 0 -1 -1 
314 6 3 -5.66443 -8.61692 4.47889 0 -1 -1 
315 6 1 -6.37956 -7.9905 4.34589 0 -1 -1 
316 6 1 -5.76698 -9.03028 5.3392 0 -1 -1 
317 7 3 10.6527 -14.3914 4.56097 0 0 -1 
318 7 1 10.2608 -13.5348 4.37612 0 0 -1 
319 7 1 11.2184 -14.6413 3.82676 0 0 -1 
320 8 3 -34.6386 13.7599 -8.84549 0 -2 0 
321 8 1 -34.066 13.79 -9.61541 0 -2 0 
322 8 1 -34.1463 14.0602 -8.07801 0 -2 0 
323 9 3 16.4566 1.89609 2.69384 0 0 2 
324 9 1 16.7171 1.16459 3.25827 0 0 2 
325 9 1 17.1956 2.13353 2.12901 0 0 2 
326 10 3 28.1053 -3.1459 15.0697 0 -1 0 
327 10 1 27.8343 -2.45691 14.4586 0 -1 0 
328 10 1 27.4209 -3.81794 15.1065 0 -1 0 
329 11 3 -46.0815 13.7844 0.0518479 0 1 -1 
330 11 1 -46.6224 14.3449 0.612896 0 1 -1 
331 11 1 -45.1594 13.8962 0.294386 0 1 -1 
332 12 3 -15.2642 -8.9106 2.45421 0 0 0 
333 12 1 -16.1322 -9.00582 2.85288 0 0 0 
334 12 1 -15.0125 -7.98436 2.47083 0 0 0 
335 13 3 -43.3591 8.70002 -14.1063 0 -1 0 
336 13 1 -42.9102 9.15181 -14.8245 0 -1 0 
337 13 1 -42.7852 8.68891 -13.3369 0 -1 0 
338 14 3 18.3608 11.0542 2.27483 0 -1 1 
339 14 1 18.3877 11.7668 1.63217 0 -1 1 
340 14 1 17.4508 10.9112 2.54499 0 -1 1 
341 15 3 -32.8004 4.37926 -6.38022 0 0 0 
342 15 1 -33.2937 5.09154 -6.79354 0 0 0 
343 15 1 -33.3884 3.63419 -6.23657 0 0 0 
344 16 3 -14.2886 -8.18297 -14.5236 0 1 1 
345 16 1 -13.848 -8.57653 -15.2802 0 1 1 
346 16 1 -13.7015 -8.22161 -13.7651 0 1 1 
347 17 3 -33.5268 8.71271 5.77475 0 -1 -2 
348 17 1 -34.3063 9.17001 5.4511 0 -1 -2 
349 17 1 -33.604 8.59737 6.72462 0 -1 -2 
350 18 3 51.3592 6.79475 4.40875 0 0 0 
351 18 1 50.4715 7.1562 4.46318 0 0 0 
352 18 1 51.9433 7.45608 4.03059 0 0 0 
353 19 3 -41.1128 7.10061 -9.88759 0 -1 -1 
354 19 1 -40.619 6.93037 -10.693 0 -1 -1 
355 19 1 -42.0505 7.00636 -10.0701 0 -1 -1 
356 20 3 -46.1399 13.4875 14.4094 0 -2 -2 
357 20 1 -45.6659 13.7519 15.2012 0 -2 -2 
358 20 1 -46.8878 12.9407 14.6607 0 -2 -2 
359 21 3 -5.82449 5.86918 -5.99546 0 -3 -1 
360 21 1 -5.16759 5.18035 -6.11998 0 -3 -1 
361 21 1 -5.38139 6.68058 -5.73699 0 -3 -1 
362 22 3 -50.365 1.12241 12.8761 0 -3 -1 
363 22 1 -50.9225 1.46892 13.5766 0 -3 -1 
364 22 1 -49.5105 1.55821 12.9123 0 -3 -1 
365 23 3 -48.8707 0.818773 10.0301 0 0 -1 
366 23 1 -48.0925 1.35835 9.87289 0 0 -1 
367 23 1 -49.5004 1.32271 10.5507 0 0 -1 
368 24 3 -26.4917 -11.35 -7.43534 0 1 -3 
369 24 1 -27.3525 -11.7638 -7.53226 0 1 -3 
370 24 1 -25.8643 -12.0042 -7.11911 0 1 -3 
371 25 3 -49.8818 -12.0948 -15.2876 0 -1 0 
372 25 1 -50.0806 -12.1449 15.9758 0 -1 -1 
373 25 1 -50.6509 -12.3806 -14.7893 0 -1 0 
374 26 3 -72.1296 14.9839 8.34598 0 -2 -1 
375 26 1 -71.4701 14.2972 8.46792 0 -2 -1 
376 26 1 -72.53 14.8825 7.47941 0 -2 -1 
377 27 3 -39.0676 -6.27626 2.52515 0 -1 -1 
378 27 1 -39.0804 -5.34363 2.75218 0 -1 -1 
379 27 1 -39.9333 -6.6524 2.7001 0 -1 -1 
380 28 3 -70.7879 -8.34053 0.948995 0 -3 0 
381 28 1 -71.6724 -8.61215 1.20461 0 -3 0 
382 28 1 -70.4793 -8.90872 0.239467 0 -3 0 
383 29 3 -54.7737 8.49715 -9.64283 0 -1 -1 
384 29 1 -55.1281 8.84081 -8.8195 0 -1 -1 
385 29 1 -55.5014 8.28686 -10.2326 0 -1 -1 
386 30 3 74.9569 1.13105 -5.29036 -1 1 0 
387 30 1 75.8205 1.40274 -5.60978 -1 1 0 
388 30 1 74.8744 0.179239 -5.38393 -1 1 0 
389 31 3 -5.57203 -11.1129 -0.424457 0 0 -1 
390 31 1 -5.54483 -11.0175 0.530358 0 0 -1 
391 31 1 -5.55237 -12.0467 -0.645928 0 0 -1 
392 32 3 78.7268 4.34908 -10.795 -1 -1 0 
393 32 1 77.8215 4.3911 -11.1116 -1 -1 0 
394 32 1 79.0153 5.23266 -10.5551 -1 -1 0 
395 33 3 55.8781 8.70753 10.135 -1 1 0 
396 33 1 55.8504 8.63833 11.0921 -1 1 0 
397 33 1 55.993 7.83073 9.76147 -1 1 0 
398 34 3 52.3847 -3.58261 7.93771 -1 -1 -2 
399 34 1 52.4231 -3.03065 8.72218 -1 -1 -2 
400 34 1 53.2644 -3.91612 7.74687 -1 -1 -2 
401 35 3 -56.7142 -13.0132 -6.7828 0 -1 -1 
402 35 1 -57.092 -13.8883 -6.89642 0 -1 -1 
403 35 1 -56.2219 -12.7803 -7.57331 0 -1 -1 
404 36 3 -31.4195 7.95719 11.3399 0 -2 -2 
405 36 1 -30.7923 8.29862 10.6984 0 -2 -2 
406 36 1 -32.1276 7.50557 10.875 0 -2 -2 
407 37 3 53.1579 14.3948 -11.5578 0 0 -2 
408 37 1 53.6248 15.2334 -11.5754 0 0 -2 
409 37 1 52.3845 14.4794 -10.9954 0 0 -2 
410 38 3 45.8177 15.0371 1.76516 0 0 -1 
411 38 1 46.2363 15.71 1.22338 0 0 -1 
412 38 1 46.2747 14.2029 1.63581 0 0 -1 
413 39 3 -73.5332 14.0965 3.31547 1 1 -1 
414 39 1 -74.0455 14.8298 2.96717 1 1 -1 
415 39 1 -74.1297 13.4639 3.72229 1 1 -1 
416 40 3 72.6098 6.8332 6.14466 0 0 -1 
417 40 1 72.9858 6.09353 5.66198 0 0 -1 
418 40 1 71.7425 7.03276 5.78472 0 0 -1 
419 41 3 52.5951 -0.66866 6.09719 0 0 -1 
420 41 1 52.2535 -1.56537 6.07021 0 0 -1 
421 41 1 52.9403 -0.492035 6.97532 0 0 -1 
422 42 3 29.1435 14.5107 7.35483 0 -1 -1 
423 42 1 28.2386 14.2802 7.57698 0 -1 -1 
424 42 1 29.1467 15.3493 6.88763 0 -1 -1 
425 43 3 33.588 -12.9388 1.2605 0 0 0 
426 43 1 33.6992 -13.1707 2.18535 0 0 0 
427 43 1 33.1661 -12.0785 1.20257 0 0 0 
428 44 3 -4.57377 -3.80062 -7.28633 0 0 0 
429 44 1 -4.45028 -2.85528 -7.39852 0 0 0 
430 44 1 -4.49502 -4.01769 -6.35456 0 0 0 
431 45 3 2.74595 2.03425 3.37455 0 -1 -1 
432 45 1 3.65743 1.76725 3.23517 0 -1 -1 
433 45 1 2.2488 1.28512 3.71095 0 -1 -1 
434 46 3 46.0437 4.26111 12.3858 0 0 -2 
435 46 1 46.9611 4.34754 12.655 0 0 -2 
436 46 1 45.6156 5.11749 12.4553 0 0 -2 
437 47 3 -68.0099 -15.6052 11.2848 1 0 -1 
438 47 1 -68.3523 15.8375 11.7633 1 -1 -1 
439 47 1 -67.6248 -14.9883 11.9114 1 0 -1 
440 48 3 75.4002 -14.1499 -9.66811 0 1 2 
441 48 1 75.9884 -13.4681 -9.33548 0 1 2 
442 48 1 75.6421 -14.9911 -9.27381 0 1 2 
443 49 3 63.4672 -4.32399 -13.6541 0 0 -1 
444 49 1 62.8943 -3.92732 -14.3144 0 0 -1 
445 49 1 64.2838 -3.82154 -13.6064 0 0 -1 
446 50 3 -65.0057 1.46177 -0.472571 1 0 -1 
447 50 1 -65.7579 2.02612 -0.279529 1 0 -1 
448 50 1 -64.2135 2.00192 -0.519148 1 0 -1 
449 51 3 67.618 -8.42282 5.83335 0 1 -1 
450 51 1 67.8156 -7.58173 6.25172 0 1 -1 
451 51 1 67.8084 -9.13188 6.4518 0 1 -1 
452 52 3 10.3561 0.589774 1.19701 0 -1 1 
453 52 1 9.64714 0.0516233 1.55647 0 -1 1 
454 52 1 11.0394 0.0133667 0.847045 0 -1 1 
455 53 3 22.8925 10.121 5.89054 0 -1 -1 
456 53 1 23.735 9.76724 5.5964 0 -1 -1 
457 53 1 23.0327 10.6437 6.68344 0 -1 -1 
458 54 3 11.094 4.50905 10.3637 0 0 0 
459 54 1 11.8506 5.07128 10.5453 0 0 0 
460 54 1 10.4478 5.00815 9.85893 0 0 0 
461 55 3 2.11376 3.35798 -6.37335 0 -1 1 
462 55 1 3.03259 3.54123 -6.16437 0 -1 1 
463 55 1 1.70237 2.92588 -5.62132 0 -1 1 
464 56 3 20.1023 -4.54918 -0.418927 0 0 -1 
465 56 1 20.4817 -4.27315 0.418554 0 0 -1 
466 56 1 20.0479 -5.50743 -0.436657 0 0 -1 
467 57 3 39.9043 10.7468 11.4926 0 0 -1 
468 57 1 39.4284 10.1118 10.9524 0 0 -1 
469 57 1 39.409 10.9038 12.2998 0 0 -1 
470 58 3 -19.149 3.88534 9.36345 0 0 2 
471 58 1 -18.7808 4.0122 10.2409 0 0 2 
472 58 1 -18.7162 3.13579 8.9483 0 0 2 
473 59 3 -30.8991 -10.5108 12.6411 0 0 0 
474 59 1 -30.5122 -10.5691 13.5177 0 0 0 
475 59 1 -31.2277 -9.61941 12.5032 0 0 0 
476 60 3 29.9203 -0.288071 -9.2555 0 0 0 
477 60 1 30.4528 -0.803336 -9.86578 0 0 0 
478 60 1 29.5312 0.451552 -9.72785 0 0 0 
479 61 3 11.1208 5.73428 -0.396812 0 -1 -1 
480 61 1 12.0353 5.44765 -0.340901 0 -1 -1 
481 61 1 10.634 5.11979 -0.950827 0 -1 -1 
482 62 3 11.026 -14.2756 10.9337 0 -1 1 
483 62 1 11.5654 -14.6582 10.2379 0 -1 1 
484 62 1 10.1846 -14.7366 10.9662 0 -1 1 
485 63 3 -23.96 6.4714 -16.0468 0 -1 -1 
486 63 1 -24.5119 7.25676 -16.0587 0 -1 -1 
487 63 1 -24.4491 5.73985 15.7709 0 -1 -2 
488 64 3 11.7379 9.36001 4.49042 0 -1 -1 
489 64 1 12.4115 9.18779 3.82848 0 -1 -1 
490 64 1 11.4099 8.52321 4.8276 0 -1 -1 
491 65 3 -21.5332 3.96142 13.157 0 0 0 
492 65 1 -21.1736 3.33759 13.7919 0 0 0 
493 65 1 -22.0765 3.48559 12.5246 0 0 0 
494 66 3 19.4208 8.26598 -5.70377 0 0 0 
495 66 1 19.8043 9.09608 -5.41157 0 0 0 
496 66 1 19.527 8.19025 -6.65482 0 0 0 
497 67 3 -39.5103 -3.63415 11.052 0 -1 0 
498 67 1 -40.366 -3.20721 11.1362 0 -1 0 
499 67 1 -39.6233 -4.58246 11.1493 0 -1 0 
500 68 3 -20.5604 -0.953427 -13.3044 0 -1 0 
501 68 1 -20.7591 -1.3833 -14.1394 0 -1 0 
502 68 1 -20.0483 -1.55391 -12.7579 0 -1 0 
503 69 3 -27.0046 -10.5824 12.0356 0 -1 -1 
504 69 1 -26.7461 -10.0901 12.818 0 -1 -1 
505 69 1 -27.649 -11.249 12.2845 0 -1 -1 
506 70 3 -34.9481 10.0292 2.57779 0 0 1 
507 70 1 -35.4833 10.3218 1.83656 0 0 1 
508 70 1 -34.2796 10.693 2.76191 0 0 1 
509 71 3 -50.1284 -4.22688 -3.40903 0 -1 0 
510 71 1 -49.176 -4.21689 -3.52828 0 -1 0 
511 71 1 -50.5441 -4.48532 -4.23482 0 -1 0 
512 72 3 -41.3223 4.06228 9.7804 0 -1 0 
513 72 1 -42.1184 4.36951 9.34055 0 -1 0 
514 72 1 -41.5275 3.26814 10.2791 0 -1 0 
515 73 3 78.9606 -9.89392 -8.39961 -1 1 -1 
516 73 1 79.6229 -9.37679 -7.93549 -1 1 -1 
517 73 1 79.3948 -10.4341 -9.06378 -1 1 -1 
518 74 3 -43.7737 -8.88157 7.83574 0 -2 -2 
519 74 1 -42.933 -8.88688 8.29905 0 -2 -2 
520 74 1 -43.6093 -8.86653 6.89008 0 -2 -2 
521 75 3 -52.8237 8.17558 14.6774 0 -2 -3 
522 75 1 -52.8019 8.97085 14.1402 0 -2 -3 
523 75 1 -52.6692 8.41359 15.5945 0 -2 -3 
524 76 3 59.066 9.71994 5.57117 -1 0 -2 
525 76 1 58.7566 8.9436 5.09889 -1 0 -2 
526 76 1 58.3161 10.2867 5.76618 -1 0 -2 
527 77 3 -59.4514 5.68804 -11.1099 0 0 -1 
528 77 1 -59.5384 5.1321 -11.8876 0 0 -1 
529 77 1 -58.5738 6.07683 -11.1002 0 0 -1 
530 78 3 -47.7044 4.41121 2.93909 0 0 -1 
531 78 1 -46.782 4.56101 2.71939 0 0 -1 
532 78 1 -47.7945 4.36312 3.89359 0 0 -1 
533 79 3 -61.3034 13.9541 -4.15424 0 -1 0 
534 79 1 -61.0495 14.6902 -3.59282 0 -1 0 
535 79 1 -62.2087 14.082 -4.44685 0 -1 0 
536 80 3 -20.6304 -15.155 7.60617 0 1 -1 
537 80 1 -20.0775 -15.0798 8.38728 0 1 -1 
538 80 1 -20.5422 -16.04 7.24481 0 1 -1 
539 81 3 73.1042 13.5194 -6.14526 -1 -1 -1 
540 81 1 73.6571 12.8563 -5.72554 -1 -1 -1 
541 81 1 73.0287 13.3169 -7.08056 -1 -1 -1 
542 82 3 -75.1516 6.65564 -8.99388 0 -1 -1 
543 82 1 -75.9638 6.14622 -9.04299 0 -1 -1 
544 82 1 -75.2348 7.43118 -9.55345 0 -1 -1 
545 83 3 -52.5455 12.3213 -11.8658 0 -2 0 
546 83 1 -53.2347 12.9854 -11.9401 0 -2 0 
547 83 1 -52.8862 11.4807 -12.1804 0 -2 0 
548 84 3 80.1349 -2.32231 -15.1805 -1 0 -1 
549 84 1 79.6854 -2.60421 -14.3805 -1 0 -1 
550 84 1 -80.4663 -1.4657 -15.0261 0 0 -1 
551 85 3 -79.1529 13.5783 -0.335036 0 -1 -1 
552 85 1 -80.0458 13.7657 -0.633353 0 -1 -1 
553 85 1 -78.7395 12.9681 -0.950047 0 -1 -1 
554 86 3 79.8181 4.4641 -3.42085 0 0 1 
555 86 1 79.7525 3.65456 -3.93258 0 0 1 
556 86 1 79.4495 4.31254 -2.54755 0 0 1 
557 87 3 11.9911 8.07363 -3.94651 0 -2 0 
558 87 1 12.4266 7.21931 -3.90257 0 -2 0 
559 87 1 12.6574 8.7647 -3.94252 0 -2 0 
560 88 3 31.3966 -14.244 -1.04152 0 0 0 
561 88 1 32.2669 -14.0337 -0.695263 0 0 0 
562 88 1 31.2317 -15.1823 -0.923574 0 0 0 
563 89 3 70.1188 7.20029 -14.6514 0 1 0 
564 89 1 69.8136 6.38923 -14.2385 0 1 0 
565 89 1 70.605 6.98087 -15.4495 0 1 0 
566 90 3 77.1175 14.205 -12.4703 0 0 -1 
567 90 1 76.52 14.8157 -12.0325 0 0 -1 
568 90 1 76.6902 13.8605 -13.2579 0 0 -1 
569 91 3 -59.6048 -0.57193 -7.49856 1 1 0 
570 91 1 -58.756 -0.900806 -7.19382 1 1 0 
571 91 1 -59.8145 0.236903 -7.02599 1 1 0 
572 92 3 33.5988 -5.79311 -16.0022 0 1 0 
573 92 1 34.3506 -5.96522 15.6273 0 1 -1 
574 92 1 33.2225 -4.93971 15.9719 0 1 -1 
575 93 3 52.6615 -14.2862 7.78281 0 2 0 
576 93 1 51.7507 -14.4211 7.51118 0 2 0 
577 93 1 52.6762 -13.7159 8.55481 0 2 0 
578 94 3 40.0717 9.11572 0.39003 0 0 -1 
579 94 1 40.0596 8.47822 1.10764 0 0 -1 
580 94 1 40.7835 8.89266 -0.214221 0 0 -1 
581 95 3 63.8791 11.4014 -12.0212 0 1 0 
582 95 1 64.2483 11.7634 -11.2123 0 1 0 
583 95 1 63.1039 11.9115 -12.2666 0 1 0 
584 96 3 60.7203 11.7949 9.4985 0 0 -1 
585 96 1 59.9218 12.1 9.9354 0 0 -1 
586 96 1 61.1769 11.1792 10.0763 0 0 -1 
587 97 3 -47.7475 -9.74183 7.40412 1 1 0 
588 97 1 -47.8359 -10.6393 7.07514 1 1 0 
589 97 1 -47.282 -9.21405 6.75122 1 1 0 
590 98 3 -71.1443 13.0423 1.60019 1 -1 -1 
591 98 1 -71.1187 12.2338 1.08321 1 -1 -1 
592 98 1 -72.0217 13.4265 1.53619 1 -1 -1 
593 99 3 33.6215 -5.81116 10.0795 0 1 -1 
594 99 1 34.3262 -6.43711 9.89764 0 1 -1 
595 99 1 32.9405 -6.24855 10.5957 0 1 -1 
596 100 3 24.7368 -9.12929 4.16523 0 1 0 
597 100 1 25.3078 -8.36809 4.29197 0 1 0 
598 100 1 23.8567 -8.91621 4.48363 0 1 0 
599 101 3 -0.212346 -2.64173 15.1917 0 -1 0 
600 101 1 -0.983597 -2.23246 15.5907 0 -1 0 
601 101 1 -0.050877 -3.48639 15.6183 0 -1 0 
602 102 3 30.5763 -1.70052 -14.9408 0 0 -1 
603 102 1 30.9776 -2.43438 -15.4118 0 0 -1 
604 102 1 29.9508 -2.04544 -14.2994 0 0 -1 
605 103 3 42.8441 -10.3607 9.5375 0 0 -1 
606 103 1 43.4793 -10.9803 9.17112 0 0 -1 
607 103 1 42.6315 -10.6254 10.4354 0 0 -1 
608 104 3 -31.9721 15.1169 -15.2051 0 -2 0 
609 104 1 -31.6503 14.8847 -14.331 0 -2 0 
610 104 1 -31.6721 14.4567 -15.8341 0 -2 0 
611 105 3 -22.2035 6.21186 2.65711 0 -1 0 
612 105 1 -21.5283 5.76026 3.16857 0 -1 0 
613 105 1 -22.6597 5.57099 2.10693 0 -1 0 
614 106 3 -8.28696 3.41966 -15.7081 0 -2 0 
615 106 1 -8.92878 3.90831 15.9727 0 -2 -1 
616 106 1 -8.0676 3.92858 -14.9243 0 -2 0 
617 107 3 26.1941 -7.19952 -4.19768 0 -1 0 
618 107 1 25.5899 -6.59704 -4.63759 0 -1 0 
619 107 1 26.8016 -6.69187 -3.65478 0 -1 0 
620 108 3 -28.2826 -15.7503 8.09159 0 0 -2 
621 108 1 -28.0493 15.9121 7.33213 0 -1 -2 
622 108 1 -28.116 -14.8281 7.88358 0 0 -2 
623 109 3 -32.8808 -2.20272 6.91735 0 0 -1 
624 109 1 -32.4524 -3.00251 7.2309 0 0 -1 
625 109 1 -32.5924 -1.46207 7.45565 0 0 -1 
626 110 3 -14.9652 3.13105 -2.98497 0 0 1 
627 110 1 -15.0982 2.29012 -2.54149 0 0 1 
628 110 1 -15.8143 3.56642 -3.09042 0 0 1 
629 111 3 24.121 10.5457 0.829465 0 -1 0 
630 111 1 23.5583 11.1279 0.313689 0 -1 0 
631 111 1 23.6418 10.2593 1.61043 0 -1 0 
632 112 3 7.16275 9.70915 6.97953 0 -1 1 
633 112 1 7.10225 9.67203 6.0222 0 -1 1 
634 112 1 6.49491 9.13239 7.35749 0 -1 1 
635 113 3 22.4512 4.41667 -1.47412 0 -2 0 
636 113 1 22.9656 4.88662 -2.13448 0 -2 0 
637 113 1 22.5749 4.84062 -0.621774 0 -2 0 
638 114 3 -8.6436 -9.41126 4.47634 0 2 -1 
639 114 1 -8.83593 -10.3451 4.58828 0 2 -1 
640 114 1 -8.92536 -9.13693 3.60063 0 2 -1 
641 115 3 -4.9114 -1.02872 14.3838 0 -1 0 
642 115 1 -5.86557 -1.01703 14.4884 0 -1 0 
643 115 1 -4.70004 -1.18508 13.4606 0 -1 0 
644 116 3 2.73514 7.37607 -4.80382 0 -2 2 
645 116 1 2.84694 7.27176 -5.75152 0 -2 2 
646 116 1 1.82865 7.63487 -4.62267 0 -2 2 
647 117 3 -76.6415 -0.544 15.2279 0 -2 -1 
648 117 1 -77.1803 0.122118 15.6609 0 -2 -1 
649 117 1 -76.4227 -1.23006 15.8627 0 -2 -1 
650 118 3 -23.2445 0.91765 -11.3865 0 -2 -1 
651 118 1 -23.0613 0.0899629 -10.9361 0 -2 -1 
652 118 1 -24.1927 1.06707 -11.3922 0 -2 -1 
653 119 3 -21.4544 -11.1301 2.54928 0 0 -2 
654 119 1 -20.7134 -11.0726 1.9417 0 0 -2 
655 119 1 -22.2723 -11.1163 2.0469 0 0 -2 
656 120 3 -9.69423 -6.5309 15.4815 0 0 -1 
657 120 1 -10.2567 -5.7665 15.626 0 0 -1 
658 120 1 -8.99319 -6.29212 14.8708 0 0 -1 
659 121 3 71.8279 12.4213 -13.4578 -1 -2 0 
660 121 1 71.6988 11.4779 -13.3361 -1 -2 0 
661 121 1 71.4653 12.8867 -12.7005 -1 -2 0 
662 122 3 -23.8505 -0.0234342 5.52926 0 -1 -1 
663 122 1 -24.5047 0.647733 5.73701 0 -1 -1 
664 122 1 -22.9793 0.307385 5.75956 0 -1 -1 
665 123 3 -76.6972 14.106 -13.8302 0 0 -1 
666 123 1 -76.6932 14.9245 -14.3318 0 0 -1 
667 123 1 -77.4217 14.1288 -13.2008 0 0 -1 
668 124 3 64.6835 12.7923 12.743 -1 1 -1 
669 124 1 65.6345 12.9166 12.7824 -1 1 -1 
670 124 1 64.4515 12.4251 11.8869 -1 1 -1 
671 125 3 -23.1213 4.80526 -13.5785 0 -3 0 
672 125 1 -23.252 5.42134 -14.3029 0 -3 0 
673 125 1 -23.7247 5.02807 -12.8659 0 -3 0 
674 126 3 -46.5285 -4.9977 14.4113 0 0 0 
675 126 1 -47.2513 -4.4242 14.1464 0 0 0 
676 126 1 -46.3425 -4.8562 15.3424 0 0 0 
677 127 3 -72.2361 10.1825 -4.62464 0 1 -1 
678 127 1 -71.5398 9.7517 -4.12359 0 1 -1 
679 127 1 -72.193 9.88738 -5.53708 0 1 -1 
680 128 3 -63.4069 10.5838 13.7478 0 0 0 
681 128 1 -64.145 10.7323 13.1523 0 0 0 
682 128 1 -63.4903 9.7104 14.1373 0 0 0 
683 129 3 -76.3804 -1.39871 -9.73684 0 0 -1 
684 129 1 -77.0617 -2.03916 -9.95418 0 0 -1 
685 129 1 -75.543 -1.69855 -10.0978 0 0 -1 
686 130 3 -73.4244 14.372 -12.0791 0 -1 0 
687 130 1 -74.3459 14.1107 -12.1428 0 -1 0 
688 130 1 -73.3707 15.3304 -12.0776 0 -1 0 
689 131 3 78.1299 10.6919 0.122405 -1 0 0 
690 131 1 78.0717 10.094 0.871161 -1 0 0 
691 131 1 78.5942 11.4874 0.392982 -1 0 0 
692 132 3 -36.8894 -6.41128 -6.944 0 0 0 
693 132 1 -36.2979 -5.73311 -6.60967 0 0 0 
694 132 1 -36.4549 -6.87915 -7.66085 0 0 0 
695 133 3 -43.6472 -2.85325 4.0631 0 -1 1 
696 133 1 -44.1066 -3.3167 4.7671 0 -1 1 
697 133 1 -43.4557 -1.95785 4.35138 0 -1 1 
698 134 3 -57.2656 7.77258 1.89266 0 -2 0 
699 134 1 -56.7249 7.28026 2.5146 0 -2 0 
700 134 1 -57.182 8.71037 2.07998 0 -2 0 
701 135 3 14.6275 10.5092 11.677 0 0 0 
702 135 1 15.1632 11.3043 11.6287 0 0 0 
703 135 1 14.1035 10.4362 10.876 0 0 0 
704 136 3 47.8932 -8.44874 12.7632 0 1 -1 
705 136 1 47.0556 -8.89523 12.6201 0 1 -1 
706 136 1 47.9093 -8.0928 13.6546 0 1 -1 
707 137 3 8.93732 -10.5109 6.80597 0 0 -1 
708 137 1 8.22753 -10.0846 6.32024 0 0 -1 
709 137 1 8.57168 -10.935 7.58569 0 0 -1 
710 138 3 51.115 -7.02379 -14.7503 0 2 -1 
711 138 1 50.7855 -7.775 -15.249 0 2 -1 
712 138 1 50.8038 -6.21448 -15.1623 0 2 -1 
713 139 3 32.7257 4.7175 10.1941 0 -1 -1 
714 139 1 33.0498 5.39224 9.59311 0 -1 -1 
715 139 1 32.2512 4.05218 9.69041 0 -1 -1 
716 140 3 20.595 -0.75367 -7.80452 0 -1 1 
717 140 1 20.8158 -0.113338 -8.48478 0 -1 1 
718 140 1 19.6513 -0.714879 -7.63329 0 -1 1 
719 141 3 4.95998 3.69433 0.804925 0 -1 -2 