LAMMPS (24 Apr 2013)
WARNING: OMP_NUM_THREADS environment is not set. (../comm.cpp:100)
  using 1 OpenMP thread(s) per MPI task
# LAMMPS 2005 MD Simulation Parameters - Generated by XenoView
# Structure file "C:\Users\laflij\Dropbox\Xenoview\34m.lmp"
# Source force field file pcff_d.frc

# Define units and force field
units		real
atom_style	full
boundary	p p p
kspace_style	pppm 0.0001

# Read system data
read_restart	confout-1.data
  orthogonal box = (-80.4995 -16.0999 -16.0999) to (80.4995 16.0999 16.0999)
  1 by 1 by 1 MPI processor grid
  12061 atoms
  8140 bonds
  4517 angles
  888 dihedrals
  397 impropers
  4 = max # of 1-2 neighbors
  6 = max # of 1-3 neighbors
  12 = max # of 1-4 neighbors
  16 = max # of special neighbors

# Write (hopefully folded) structure out
dump            icrd all custom 1 system-2.lammpstrj id mol type x y z ix iy iz
dump_modify     icrd sort id
run             1
WARNING: No fixes defined, atoms won't move (../verlet.cpp:54)
PPPM initialization ...
  G vector (1/distance) = 0.257682
  grid = 60 18 18
  stencil order = 5
  estimated absolute RMS force accuracy = 0.0342026
  estimated relative force accuracy = 0.000103
  using double precision FFTs
  3d grid and FFT values/proc = 40625 19440
Memory usage per processor = 59.2089 Mbytes
Step Temp E_pair E_mol TotEng Press 
  105001    202.76395   -23287.844    -124.7202   -16123.491    4341.4636 
  105002    202.76395   -23287.844    -124.7202   -16123.491    4341.4636 
Loop time of 0.131742 on 1 procs (1 MPI x 1 OpenMP) for 1 steps with 12061 atoms

Pair  time (%) = 0.0969319 (73.5771)
Bond  time (%) = 0.00235796 (1.78983)
Kspce time (%) = 0.00976992 (7.41595)
Neigh time (%) = 0 (0)
Comm  time (%) = 0.000273943 (0.207939)
Outpt time (%) = 0.022336 (16.9544)
Other time (%) = 7.22408e-05 (0.0548351)

FFT time (% of Kspce) = 0.00246048 (25.1842)
FFT Gflps 3d (1d only) = 1.56044 2.30419

Nlocal:    12061 ave 12061 max 12061 min
Histogram: 1 0 0 0 0 0 0 0 0 0
Nghost:    30239 ave 30239 max 30239 min
Histogram: 1 0 0 0 0 0 0 0 0 0
Neighs:    3.14774e+06 ave 3.14774e+06 max 3.14774e+06 min
Histogram: 1 0 0 0 0 0 0 0 0 0

Total # of neighbors = 3147739
Ave neighs/atom = 260.985
Ave special neighs/atom = 2.24608
Neighbor list builds = 0
Dangerous builds = 0

# Reset the timestep
undump         	icrd

# Timestep and Neighbour searching
timestep	1.5
neighbor	2.0 bin
neigh_modify	every 1 delay 4 check yes


# Computes
#compute rdf all rdf 100 1 1 1 2 2 2
#compute msd all msd com yes

# Fixes
fix		1 all shake 0.0001 20 0 b 3 a 4
  0 = # of size 2 clusters
  0 = # of size 3 clusters
  0 = # of size 4 clusters
  3920 = # of frozen angles
fix		2 all npt temp 300.0 300.0 100.0 iso 1.0 1.0 100.0
#fix		 rdf all ave/time 1 500000 500000 c_rdf file rdf.xvg mode vector
#fix		 msd all ave/time 1 500000 500000 c_msd file msd.xvg mode vector

# Write out thermodynamic information
thermo_style    custom step temp press vol pe ke etotal
thermo	        250

# Write out trajectory
dump            cxtc all xtc 250 traj-2.xtc

# Write out velocity
#dump 		 1 all custom 1 vel_npt.txt vx vy vz

# Checkpoint files
restart         5000 state_cpt-*.data

# Final run command
run             100000
PPPM initialization ...
  G vector (1/distance) = 0.257682
  grid = 60 18 18
  stencil order = 5
  estimated absolute RMS force accuracy = 0.0342026
  estimated relative force accuracy = 0.000103
  using double precision FFTs
  3d grid and FFT values/proc = 40625 19440
Memory usage per processor = 59.5386 Mbytes
Step Temp Press Volume PotEng KinEng TotEng 
  105002    300.40949    56.982187    166928.03   -23412.566    7289.0739   -16123.492 
  105250     299.7397    91.719357    165606.95   -23566.073    7272.8224    -16293.25 
  105500    303.37343   -200.47623    168812.18   -23286.601    7360.9904    -15925.61 
  105750    302.04532    11.277058    167496.15   -23452.124    7328.7654   -16123.358 
  106000    299.42391   -20.173458    166913.24   -23558.672      7265.16   -16293.512 
  106250    302.37861    108.08207    167985.17    -23389.67    7336.8523   -16052.818 
  106500    296.25076    8.0836324    168024.54   -23437.093    7188.1673   -16248.926 
  106750    300.47791    -7.980771    167889.01   -23384.202    7290.7341   -16093.468 
  107000    299.25613   -173.71381    168724.44    -23394.33     7261.089   -16133.241 
  107250    297.79006    49.774651    169938.87   -23222.172    7225.5165   -15996.655 
  107500    303.46861   -82.016307    168504.02   -23341.126    7363.2997   -15977.826 
  107750    299.11014    174.76174    167709.77   -23377.791    7257.5468   -16120.245 
  108000    301.71897  0.010208249    167738.49   -23300.022    7320.8468   -15979.175 
  108250     296.7035    51.257388    167903.59   -23472.749    7199.1525   -16273.596 
  108500     305.6274    125.76214    167713.07     -23381.8    7415.6801    -15966.12 
  108750    300.07265   -112.34556    167268.91       -23391    7280.9009   -16110.099 
  109000    302.65625   -40.235859    168602.08    -23264.91    7343.5887   -15921.321 
  109250    299.30573    240.09931    167623.01   -23289.035    7262.2926   -16026.742 
  109500    299.12152    144.53529    167336.26   -23476.857     7257.823   -16219.034 
  109750    298.74073    28.710562    168048.61    -23248.69    7248.5834   -16000.106 
  110000    298.40097   -138.35315    168193.47   -23335.047    7240.3395   -16094.707 
  110250    298.79842   -93.536221    167606.92   -23460.543    7249.9832    -16210.56 
  110500     302.2021    305.46598    166560.22   -23421.548    7332.5695   -16088.979 
  110750    302.27118    56.324552    166424.19   -23417.874    7334.2456   -16083.628 
  111000    306.33471    10.267462    168192.68   -23293.949    7432.8421   -15861.107 
  111250    299.39442   -199.83442    169649.05   -23217.926    7264.4444   -15953.482 
  111500    299.04101   -20.545423    168962.83   -23222.345    7255.8694   -15966.476 
  111750    302.28576    99.460057    168797.37   -23164.683    7334.5992   -15830.083 
  112000    302.09265    -58.73829    169455.59   -23249.246    7329.9137   -15919.332 
  112250    303.74516    80.901623    167867.05   -23384.376    7370.0098   -16014.366 
  112500    303.65333    119.76188    167678.05   -23439.727    7367.7818   -16071.945 
  112750    299.68832    104.75161    167240.03   -23473.823    7271.5757   -16202.247 
  113000    301.12785     139.7583     167930.6   -23281.146    7306.5042   -15974.642 
  113250    296.15651   -154.32642    167563.93   -23407.276    7185.8806   -16221.395 
  113500    301.63785    33.762106     167445.1   -23463.386    7318.8787   -16144.507 
  113750    297.70937   -69.224618    168828.64   -23276.311    7223.5588   -16052.752 
  114000    300.20978    252.36952    167244.89    -23341.27    7284.2282   -16057.042 
  114250    307.34825   -4.6788952    169705.98   -23180.441    7457.4345   -15723.007 
  114500    302.96945    60.885932     168585.7   -23255.219    7351.1883    -15904.03 
  114750    295.49834   -206.38885    167135.76   -23414.607    7169.9108   -16244.696 
  115000    300.54012   -61.325543    167349.16   -23386.102    7292.2435   -16093.859 
  115250    302.16778   -69.413533    167898.19   -23407.834    7331.7367   -16076.097 
  115500    305.09185    119.07543    167479.86   -23453.572    7402.6856   -16050.886 
  115750    301.31064   -125.74111    167402.89   -23468.225    7310.9393   -16157.286 
  116000    302.59767   -139.12363    167901.27   -23387.777    7342.1675   -16045.609 
  116250    305.67216   -150.15278    167847.79   -23359.403    7416.7662   -15942.637 
  116500    298.89187   -71.306584    167067.56   -23445.082    7252.2506   -16192.831 
  116750    299.65056   -182.28028    166636.59   -23556.691    7270.6595   -16286.032 
  117000    297.63101    198.77828    167844.86   -23233.406    7221.6576   -16011.748 
  117250    301.73871    1.9334903    168060.74   -23358.733    7321.3258   -16037.407 
  117500    295.04507    30.420673    167673.49   -23407.666    7158.9128   -16248.753 
  117750    304.23811   -50.964462    167274.35   -23512.213    7381.9708   -16130.242 
  118000    299.46759    247.92976     166671.6   -23424.535      7266.22   -16158.315 
  118250    301.75138    71.916375    168215.79    -23280.56    7321.6334   -15958.927 
  118500    299.39538    76.779059    167625.78   -23439.691    7264.4677   -16175.224 
  118750    300.82302    117.31297    167945.34   -23400.626    7299.1078   -16101.518 
  119000    299.71833    6.2221964    166816.66   -23479.302    7272.3038   -16206.999 
  119250    303.09129    43.943085    167744.04   -23300.617    7354.1446   -15946.473 
  119500    298.10051   -73.433757    168451.03   -23330.126    7233.0493   -16097.076 
  119750    295.65714   -84.727378    169192.21   -23242.129    7173.7638   -16068.365 
  120000    302.70299    82.463757    167785.63   -23300.961     7344.723   -15956.238 
  120250    299.84887    101.19439    167511.09   -23465.552    7275.4712    -16190.08 
  120500    303.10239    72.583995    168969.53   -23259.137    7354.4138   -15904.723 
  120750    301.57261    17.228745    168462.37   -23234.785    7317.2956   -15917.489 
  121000    300.35607     99.78747    168107.29   -23307.813    7287.7777   -16020.035 
  121250    307.32412   -1.3226038    168558.95   -23408.927    7456.8492   -15952.077 
  121500    301.69704    75.282349    168889.51     -23329.7    7320.3147   -16009.385 
  121750    296.48058   -68.444873    168883.13   -23267.047    7193.7437   -16073.303 
  122000    300.44368   -16.173971    168682.69   -23254.745    7289.9035   -15964.842 
  122250     304.3067   -239.83457    168165.98    -23351.07    7383.6351   -15967.435 
  122500    302.04829    180.44847    167420.75   -23419.978    7328.8374   -16091.141 
  122750    301.71447   -61.929632    167525.44   -23429.978    7320.7378    -16109.24 
  123000    299.45187     93.94596    166403.52   -23499.738    7265.8384   -16233.899 
  123250    300.35778   -149.30278    166716.99   -23540.873    7287.8192   -16253.053 
  123500    294.57084   -93.550424     166844.1   -23425.934    7147.4062   -16278.528 
  123750    301.15077   -10.610034    166731.11   -23529.766    7307.0601   -16222.706 
  124000    300.22701   -125.95139    168259.13    -23375.51    7284.6463   -16090.864 
  124250      297.626   -80.238897    167079.32   -23532.529    7221.5359   -16310.993 
  124500    300.57034    24.003805    168440.33     -23314.2    7292.9767   -16021.224 
  124750    300.77499   -70.361198    169933.33   -23271.519    7297.9423   -15973.577 
  125000    298.82081    73.217937    169867.57   -23151.141    7250.5264   -15900.615 
  125250    300.74844   -58.532472    167824.91   -23517.312    7297.2981   -16220.014 
  125500    299.19841    135.91415    167970.56   -23296.955    7259.6885   -16037.267 
  125750    299.72637   -111.30116    168654.04   -23373.874    7272.4988   -16101.376 
  126000    300.20956    90.650027    167608.04   -23365.306    7284.2229   -16081.083 
  126250    298.63567   -92.754841    168255.33   -23300.428    7246.0343   -16054.393 
  126500      297.013    23.082283    166874.48   -23455.629    7206.6622   -16248.967 
  126750    305.10929    21.972439    167197.54   -23375.257     7403.109   -15972.148 
  127000    299.57112   -9.3075658    167485.82   -23449.514    7268.7318   -16180.783 
  127250    303.44162     26.72912    167723.77    -23366.74    7362.6449   -16004.095 
  127500    296.40261   -146.78864    168300.44   -23398.192    7191.8518    -16206.34 
  127750    300.73199   -2.0998955    167733.87   -23313.403     7296.899   -16016.504 
  128000    295.29831   -140.79432     167716.3   -23404.014    7165.0573   -16238.957 
  128250    294.81589    -64.59692     167209.3   -23405.717    7153.3519   -16252.365 
  128500    300.38189   -46.593335    167799.58   -23374.135    7288.4043    -16085.73 
  128750    304.23409    53.535202    167791.49   -23313.916    7381.8732   -15932.043 
  129000    301.84325    117.29692    166092.93   -23455.947    7323.8623   -16132.085 
  129250    299.72675   -171.28382    167965.36   -23260.008    7272.5081     -15987.5 
  129500     302.6401      128.741    167383.33   -23406.925    7343.1969   -16063.728 
  129750    300.65156    -2.592844     168499.1   -23297.851    7294.9474   -16002.904 
  130000    297.78281    108.72361    167106.54   -23392.307    7225.3408   -16166.967 
  130250    300.37724    180.85801    167578.39   -23369.831    7288.2914   -16081.539 
  130500    303.31951   -5.7916396     167725.9   -23371.304    7359.6821   -16011.622 
  130750    305.30786   -28.780793    168083.65   -23351.828     7407.927   -15943.901 
  131000    298.11223   -10.029228    167917.75   -23294.368    7233.3338   -16061.035 
  131250    299.44421   -71.389901    168496.58   -23211.633    7265.6527   -15945.981 
  131500     297.3871    -33.94038    167955.04   -23318.927    7215.7394   -16103.188 
  131750     301.1165   -28.577916    167200.35   -23343.212    7306.2287   -16036.983 
  132000    298.09307   -3.8206623    167565.83   -23314.742    7232.8688   -16081.873 
  132250     297.8368    7.7445147    168165.67   -23354.144    7226.6508   -16127.493 
  132500    297.52868   -96.133416    168014.11    -23290.64    7219.1745   -16071.465 
  132750    303.35838   -32.054601    167011.14   -23392.168    7360.6252   -16031.543 
  133000    298.57251     69.71241    166575.63   -23448.502    7244.5017   -16204.001 
  133250    299.86606    16.337214    166322.94   -23457.439    7275.8882    -16181.55 
  133500    300.74993    317.77332    166558.93   -23283.192    7297.3344   -15985.858 
  133750    300.99136   -52.198025    167475.17   -23394.895    7303.1922   -16091.703 
  134000    299.61844    49.779598    167687.78   -23426.075    7269.8801   -16156.194 
  134250    303.60993    -10.81887    168327.35   -23286.965    7366.7288   -15920.236 
  134500    300.33314   -176.54466     168084.7   -23400.589    7287.2215   -16113.368 
  134750     305.2448   -117.32736    167739.98    -23388.71    7406.3969   -15982.313 
  135000    296.42864   -8.7090314    167617.56   -23428.085    7192.4835   -16235.601 
  135250    299.25295    72.805602    168321.06   -23290.198    7261.0118   -16029.186 
  135500    298.85446    34.273287    167747.27   -23401.687    7251.3429   -16150.344 
  135750    306.61638    174.82524    167212.76   -23454.311    7439.6765   -16014.635 
  136000    301.27992    94.234804    167189.06   -23510.369    7310.1939   -16200.176 
  136250    302.29686    55.551274     167696.1   -23368.708    7334.8686    -16033.84 
  136500    302.63073    96.825362    167630.85    -23423.81    7342.9696    -16080.84 
  136750     301.4935    143.84862    167659.36   -23389.095    7315.3762   -16073.718 
  137000    304.66792   -220.41946    167282.68   -23524.573    7392.3996   -16132.174 
  137250     307.4089    88.611608    168158.97   -23327.468    7458.9061   -15868.562 
  137500    302.47048   -72.124374    167679.11   -23402.699    7339.0814   -16063.617 
  137750    298.07418   -132.12074    167771.07   -23403.542    7232.4104   -16171.131 
  138000    302.28164   -99.953632    168803.39   -23383.598    7334.4994   -16049.099 
  138250    301.89095     93.26454    169198.25   -23178.149    7325.0197   -15853.129 
  138500    302.13193     -259.299     168840.5    -23314.69    7330.8669   -15983.823 
  138750    305.99692    7.6061717    167610.78    -23418.71    7424.6461   -15994.064 
  139000    294.48043     170.9572    167445.11    -23328.27    7145.2124   -16183.058 
  139250    306.01103    226.84643    166875.39   -23519.189    7424.9886     -16094.2 
  139500     298.3626   -41.518479    167544.99   -23317.771    7239.4085   -16078.362 
  139750    298.66338   -119.62005    167488.31   -23521.077    7246.7068    -16274.37 
  140000    299.96636   -107.35965     167433.2   -23455.987    7278.3218   -16177.666 
  140250    299.00958    128.52783    167893.78   -23235.351    7255.1068   -15980.244 
  140500    295.46354    20.164949    166959.12   -23406.047    7169.0664   -16236.981 
  140750    300.70366    -101.3856    168819.03    -23223.38    7296.2116   -15927.169 
  141000    299.68587    416.27672    167011.07   -23335.044    7271.5161   -16063.528 
  141250    305.54892    104.32694    168507.17   -23230.192    7413.7759   -15816.416 
  141500    300.06361    23.871584    167004.52   -23415.984    7280.6815   -16135.303 
  141750    296.79998    72.589366    166062.86   -23560.837    7201.4935   -16359.343 
  142000    307.08627    36.404888    167224.29   -23458.041     7451.078   -16006.963 
  142250    305.74733    26.823064    167867.93   -23229.738    7418.5901   -15811.147 
  142500    296.95026   -94.251989    168029.19   -23291.517    7205.1398   -16086.378 
  142750    299.93187   -94.496248    167618.69   -23471.653    7277.4851   -16194.168 
  143000     299.1927   -242.71417    168796.46   -23269.054      7259.55   -16009.504 
  143250     297.7325    261.13999    167356.42   -23440.398      7224.12   -16216.278 
  143500    297.50764    157.14276    167923.09   -23274.445     7218.664   -16055.781 
  143750    302.58505   -275.50238     167781.1   -23403.615    7341.8614   -16061.754 
  144000    295.40199    132.63333    166177.78   -23462.723    7167.5729    -16295.15 
  144250    301.27068   -70.382733    168487.23   -23305.563    7309.9698   -15995.593 
  144500    294.88834    27.720259    168534.58   -23303.699    7155.1099   -16148.589 
  144750    300.46762    33.219687    167296.32   -23485.435    7290.4843   -16194.951 
  145000     302.4045    27.839525    167026.73   -23383.875    7337.4805   -16046.394 
  145250    299.36379   -379.64846    168989.22   -23415.543    7263.7014   -16151.841 
  145500    297.36171    79.325794    167660.06   -23285.538    7215.1232   -16070.415 
  145750    298.98202    242.61426     167043.2   -23468.942    7254.4381   -16214.504 
  146000    299.56678   -171.53633    168093.94   -23443.129    7268.6265   -16174.503 
  146250    301.15102   -34.967159    168545.74   -23347.952    7307.0661   -16040.886 
  146500    304.93592    157.60561    165111.69   -23595.927    7398.9023   -16197.024 
  146750    296.80432   -77.694041    167990.27   -23423.012    7201.5989   -16221.414 
  147000    296.02097    175.41428    165726.44    -23490.17    7182.5918   -16307.578 
  147250     297.7462    224.93908    166624.04   -23371.816    7224.4524   -16147.364 
  147500    301.92446    143.51854    165641.73   -23636.065    7325.8327   -16310.233 
  147750    295.81351   -67.897003    165868.49   -23553.661    7177.5581   -16376.103 
  148000    298.44322   -24.776813     167126.7   -23359.896    7241.3647   -16118.531 
  148250    295.60245   -114.64559    167162.63   -23430.811     7172.437   -16258.374 
  148500     296.9563    288.03723    166647.11   -23379.298    7205.2864   -16174.012 
  148750    296.07204    243.35906    165361.07   -23518.895     7183.831   -16335.064 
  149000    300.01415   -163.07666    167740.84   -23348.811    7279.4814    -16069.33 
  149250    302.96609    129.68715     168425.1   -23260.502    7351.1069   -15909.395 
  149500    294.45262   -26.302941    168285.09   -23354.986    7144.5377   -16210.448 
  149750    295.97726    -74.22077    168897.87   -23101.155    7181.5312   -15919.623 
  150000    301.24859   -6.7845362    167635.92   -23410.343    7309.4336   -16100.909 
  150250    299.55653   -90.177222    166780.01   -23459.333    7268.3778   -16190.955 
  150500    306.93145    73.603737    166985.32    -23417.84    7447.3215   -15970.519 
  150750    299.64891    27.852805    167556.18   -23325.893    7270.6194   -16055.274 
  151000    298.25262   -151.84898    168343.31    -23315.38    7236.7402    -16078.64 
  151250    296.91529    60.616832    167136.35   -23316.312    7204.2913    -16112.02 
  151500    298.74765    196.13523       166868   -23421.909    7248.7513   -16173.158 
  151750    299.98274   -177.90897    168938.28   -23277.138    7278.7192   -15998.419 
  152000    300.93701   -37.480157    167854.36   -23332.025    7301.8735   -16030.151 
  152250    296.62417    7.2323665    167186.34   -23462.658    7197.2278    -16265.43 
  152500    299.56645   -104.20342    168931.92   -23308.137    7268.6185   -16039.519 
  152750    298.56432    164.11701    167635.08   -23283.976    7244.3031   -16039.673 
  153000    301.59766    50.907732    168066.11   -23360.718    7317.9035   -16042.815 
  153250    302.18822   -14.602186    168472.27   -23374.674    7332.2326   -16042.442 
  153500    302.65189    68.256855     168698.5   -23273.565    7343.4831   -15930.081 
  153750    296.76499    31.456964    169493.76    -23243.79    7200.6444   -16043.146 
  154000    300.58631   -279.59793    169956.29   -23261.136    7293.3643   -15967.771 
  154250    300.57542    123.96816    168451.65   -23405.977    7293.1001   -16112.877 
  154500     298.1758    198.69533    167748.29   -23352.653    7234.8762   -16117.777 
  154750    303.00304   -60.702202    168753.58    -23350.26    7352.0032   -15998.257 
  155000    296.64703     7.541583     167625.4   -23359.694    7197.7823   -16161.911 
  155250    303.34409    108.35066    167148.46   -23443.948    7360.2786    -16083.67 
  155500    297.77538   -139.84389    167497.58   -23346.544    7225.1605   -16121.383 
  155750    299.89415    159.54945    167080.48   -23426.422    7276.5699   -16149.852 
  156000    300.66376   -144.07596    167441.44   -23437.215    7295.2436   -16141.971 
  156250    299.54106   -84.173647    167756.74   -23285.776    7268.0026   -16017.773 
  156500     294.9494    147.46264    166614.72    -23435.96    7156.5914   -16279.368 
  156750    298.79213   -44.115704    168020.13   -23294.689    7249.8306   -16044.859 
  157000    296.01513   -39.376473    167369.65   -23398.937    7182.4501   -16216.486 
  157250    299.20171    26.875754     167164.3   -23555.695    7259.7686   -16295.926 
  157500    300.84553   -133.33767    167100.45   -23463.323    7299.6539    -16163.67 
  157750    300.85168    128.47536    167506.95   -23463.059     7299.803   -16163.256 
  158000    300.02735    189.56628    167869.67   -23232.875    7279.8018   -15953.073 
  158250    298.70501    41.726694    166190.04   -23477.291    7247.7167   -16229.575 
  158500    300.80694    38.773279    167375.86   -23386.269    7298.7176   -16087.551 
  158750    303.91361    231.33563    167605.55   -23325.725    7374.0973   -15951.628 
  159000    300.44164    86.224271    167768.95   -23407.053     7289.854   -16117.199 
  159250    306.67632    17.712098    169141.32   -23324.034     7441.131   -15882.903 
  159500     298.7839    146.44703    168311.66    -23351.54    7249.6308   -16101.909 
  159750    301.50996    97.304291    167430.21   -23376.296    7315.7755    -16060.52 
  160000    297.14432    144.04148    167024.84   -23414.514    7209.8484   -16204.666 
  160250    300.28506   -82.489086    167639.33   -23382.078    7286.0548   -16096.023 
  160500    296.00819    11.086108    168374.96   -23393.173    7182.2817   -16210.891 
  160750    307.26208   -131.15095    167867.58   -23433.198    7455.3437   -15977.854 
  161000    297.83419    17.872614    167230.64   -23482.583    7226.5875   -16255.995 
  161250    297.54981   -36.836144    169022.41   -23268.218    7219.6872    -16048.53 
  161500    298.90209    59.436705    168937.46   -23334.311    7252.4987   -16081.812 
  161750    301.65427     62.41373    166648.27   -23440.654    7319.2769   -16121.377 
  162000    298.43305   -166.23857    168251.58   -23351.077    7241.1181   -16109.959 
  162250    295.74051   -61.681701    168091.34   -23385.045    7175.7867   -16209.258 
  162500    298.26215    134.14981    166539.13   -23466.122    7236.9714    -16229.15 
  162750     301.6843    119.50506    166881.46   -23483.889    7320.0058   -16163.884 
  163000    298.56957    -8.958743    167096.21   -23312.631    7244.4305   -16068.201 
  163250    301.77387    24.426465    167385.59   -23358.879    7322.1789     -16036.7 
  163500    304.87067    268.85236    166659.52    -23453.03     7397.319   -16055.711 
  163750    298.53436    156.37362    166927.42   -23543.863    7243.5762   -16300.287 
  164000    301.71087    -33.74178    168223.08   -23424.156    7320.6504   -16103.506 
  164250    296.58693    15.008582    168229.59    -23373.75     7196.324   -16177.426 
  164500    299.70507   -129.43499     168469.4   -23277.233     7271.982   -16005.251 
  164750     300.0346   -163.22295    167427.47   -23423.213    7279.9777   -16143.235 
  165000    297.27007    27.773043     166913.4   -23475.413    7212.8998   -16262.513 
  165250    304.11622    33.204487    167515.49   -23335.905    7379.0134   -15956.892 
  165500    297.65273    -140.2799     167762.1   -23418.942    7222.1845   -16196.757 
  165750    303.68581     92.30221    167556.48   -23403.459    7368.5699   -16034.889 
  166000    302.40366    326.35278    166109.73   -23478.379      7337.46   -16140.919 
  166250    304.05785     -217.731    167936.36   -23342.011     7377.597   -15964.414 
  166500    297.46628   -71.313548    168167.89    -23408.96    7217.6604   -16191.299 
  166750    301.26976    76.307714    166996.84   -23345.022    7309.9473   -16035.075 
  167000    301.05295    137.16362    167391.35   -23265.777    7304.6866   -15961.091 
  167250    299.99673   -10.190289     167141.5   -23478.515    7279.0587   -16199.456 
  167500    297.66911    196.53553    166607.61   -23474.386     7222.582   -16251.804 
  167750    300.68887    49.957614    168480.21    -23274.55    7295.8526   -15978.697 
  168000    302.43409    69.290298     167685.1   -23424.966    7338.1983   -16086.767 
  168250    301.46428    17.150152    169310.12   -23209.721    7314.6671   -15895.053 
  168500    301.48329    165.27295       167065   -23435.363    7315.1284   -16120.234 
  168750    302.09421   -248.64155    168549.56   -23314.731    7329.9516   -15984.779 
  169000    303.19496   -43.288397    167835.62   -23442.618      7356.66   -16085.958 
  169250     299.8208    95.585037    167123.25   -23472.812      7274.79   -16198.022 
  169500     293.9011    45.137078    167994.75   -23287.355    7131.1558   -16156.199 
  169750    301.70309    87.147542    167991.14   -23365.683    7320.4616   -16045.221 
  170000    301.49781    212.54157    167944.92   -23332.257    7315.4807   -16016.777 
  170250    303.43141    21.749516    167800.91   -23354.668    7362.3971   -15992.271 
  170500    302.10932    220.04042    167093.17   -23373.023    7330.3183   -16042.705 
  170750    302.95125    104.13284    169312.81   -23059.213    7350.7467   -15708.466 
  171000    299.68892   -76.184459    168315.39   -23386.273      7271.59   -16114.683 
  171250    307.40749    188.66396    166840.48   -23464.054     7458.872   -16005.182 
  171500    303.78679  -0.51050148    167600.05   -23317.872    7371.0201   -15946.852 
  171750    301.79902    170.77683    166762.44   -23369.336    7322.7891   -16046.547 
  172000    296.76339   -66.740954    167668.17   -23456.078    7200.6057   -16255.472 
  172250    301.18327     73.73201    168772.53   -23241.284    7307.8488   -15933.436 
  172500    297.09524    70.364846    167621.71   -23440.676    7208.6576   -16232.018 
  172750     297.3073   -88.326683    166761.94   -23338.578     7213.803   -16124.775 
  173000      294.256     74.74898    166184.02   -23556.271    7139.7668   -16416.504 
  173250    295.91208    28.492128    169034.16   -23242.721    7179.9497   -16062.771 
  173500      302.493    155.40373    167130.62   -23433.755    7339.6279   -16094.127 
  173750    302.56939    31.671169    168333.31   -23297.023    7341.4813   -15955.541 
  174000     297.6547   -94.314195    168147.11   -23423.443    7222.2322   -16201.211 
  174250    298.51243    32.017213    168161.44   -23326.698     7243.044   -16083.654 
  174500    303.17085    56.750606    167634.06   -23341.874     7356.075   -15985.799 
  174750    294.10515   -52.304618    167758.78   -23408.874    7136.1067   -16272.767 
  175000    301.36316     128.0371    167859.53   -23402.153    7312.2136    -16089.94 
  175250    299.92146   -83.240059    169441.39   -23122.345    7277.2324   -15845.113 
  175500    298.65028    53.944582    166635.68    -23449.04    7246.3889   -16202.651 
  175750    303.46611   -179.98899    168538.15   -23388.802    7363.2391   -16025.563 
  176000    300.72821   -137.62165    168793.83   -23296.445    7296.8073   -15999.637 
  176250    298.61659    48.867316    166677.82   -23416.461    7245.5713    -16170.89 
  176500    293.37171     4.358285    166586.61   -23462.812    7118.3106   -16344.502 
  176750    300.60183   -45.254459    167125.95   -23417.507    7293.7408   -16123.766 
  177000    297.26064   -95.140801     166467.2   -23464.826    7212.6708   -16252.156 
  177250    297.49896   -50.546573    166922.08    -23525.16    7218.4535   -16306.707 
  177500    296.99724    151.39485    167717.39   -23311.828    7206.2797   -16105.548 
  177750    295.04876   -82.175899    169509.05   -23158.369    7159.0022   -15999.367 
  178000     300.3122    50.979473    167660.16   -23315.549    7286.7133   -16028.836 
  178250    299.65106   0.43110729    167139.63   -23372.447    7270.6715   -16101.776 
  178500    301.47153   -305.75583    168043.86   -23484.775     7314.843   -16169.932 
  178750    300.44325   -142.47985    169721.71   -23218.507    7289.8932   -15928.614 
  179000    298.31519      51.0703    167599.52    -23455.35    7238.2582   -16217.092 
  179250    300.73549    87.681327    167617.29    -23435.18     7296.984   -16138.196 
  179500    299.21792    115.96883     167658.4    -23379.56    7260.1618   -16119.398 
  179750    301.96708    90.888391    169155.97   -23164.699     7326.867   -15837.832 
  180000    301.06687    155.08328    167798.89   -23323.754    7305.0245   -16018.729 
  180250    300.61347    90.717801    168238.08   -23318.751    7294.0232   -16024.728 
  180500    299.90996    64.820901    165968.19   -23595.592    7276.9533   -16318.638 
  180750    302.52164     118.8933    166041.92   -23556.582    7340.3227   -16216.259 
  181000    303.87042    21.210117    166598.58   -23420.763    7373.0492   -16047.714 
  181250    301.81565    25.600548    166718.08   -23478.541    7323.1928   -16155.348 
  181500    307.59073    111.25431    167573.58    -23318.82     7463.318   -15855.502 
  181750    298.54466   -161.54684    169588.13   -23221.467     7243.826   -15977.641 
  182000    296.52459   -36.246633    168480.77   -23272.935    7194.8115   -16078.124 
  182250    303.22421   -70.241117    168047.36   -23338.287    7357.3696   -15980.918 
  182500    302.94739    117.96865    167128.12   -23475.727     7350.653   -16125.074 
  182750    303.60707   -40.386592    168616.23   -23308.562    7366.6593   -15941.903 
  183000    296.09739      20.1777    167375.01   -23425.094     7184.446   -16240.648 
  183250        299.6   -136.09288    169084.85   -23364.436    7269.4327   -16095.003 
  183500    306.57835   -40.455205    166752.22   -23549.066    7438.7539   -16110.313 
  183750    302.70344    161.87291    166137.72    -23511.13    7344.7338   -16166.397 
  184000     300.3504   -71.742237     168297.8   -23353.468    7287.6401   -16065.828 
  184250    299.57259    17.159219    167437.55   -23484.135    7268.7676   -16215.367 
  184500     302.5629    231.61841    165891.62   -23504.588    7341.3239   -16163.265 
  184750    298.00929    69.543043    167503.42   -23360.279    7230.8359   -16129.443 
  185000     299.3765   -25.230806    165949.38    -23593.99    7264.0098   -16329.981 
  185250    300.00022   -2.3581649    165904.78   -23622.702    7279.1434   -16343.559 
  185500    307.79032    -25.29101    166897.95   -23503.856    7468.1609   -16035.695 
  185750    296.99374   -13.060145    166693.14   -23526.804    7206.1949   -16320.609 
  186000    300.57135    97.871576    166673.83   -23458.207    7293.0013   -16165.205 
  186250    300.89392    92.115269    166021.23   -23550.804    7300.8279   -16249.976 
  186500    295.41902    120.80752    166932.97   -23520.891    7167.9861   -16352.905 
  186750    299.71885    116.96211    167309.43    -23332.01    7272.3164   -16059.693 
  187000    301.35161    31.695037    167971.18   -23277.671    7311.9334   -15965.737 
  187250    296.17121   -38.882585    168269.24   -23322.412    7186.2371   -16136.175 
  187500    300.18874    75.308639    166904.63   -23534.791    7283.7177   -16251.073 
  187750    297.75437    55.605224    167777.84   -23288.964    7224.6506   -16064.314 
  188000    297.54206   -19.562858    168304.55   -23306.724    7219.4992   -16087.224 
  188250    297.41966    82.193966    167413.45   -23356.454    7216.5294   -16139.924 
  188500    303.09606    23.745485    167061.45   -23399.933    7354.2603   -16045.673 
  188750     298.7104   -118.27093    167704.65    -23369.49    7247.8476   -16121.642 
  189000    301.45642    137.31305    166867.29   -23427.814    7314.4765   -16113.338 
  189250    304.62255   -140.81558    167688.38    -23355.49    7391.2987   -15964.191 
  189500    300.94153   -197.50244     168863.5   -23377.585    7301.9833   -16075.602 
  189750    303.74915    106.93408    168041.89    -23309.19    7370.1067   -15939.084 
  190000    301.79441   -113.55241    168693.87   -23328.167    7322.6774    -16005.49 
  190250    300.68898    9.6461024    168367.21   -23389.444    7295.8553   -16093.588 
  190500    299.30038   -73.959044    169365.39   -23211.318    7262.1626   -15949.155 
  190750    294.30165   -55.878099    168293.15   -23278.008    7140.8745   -16137.133 
  191000    301.72163   -94.511635    168731.31   -23302.232    7320.9113   -15981.321 
  191250    299.62356   -38.571783    168263.28   -23385.919    7270.0044   -16115.914 
  191500    299.07069    131.80673    166543.56   -23461.041    7256.5895   -16204.452 
  191750    302.68389   -65.456668    165924.21   -23494.112    7344.2596   -16149.853 
  192000    298.61947    57.514867    166179.14   -23523.573    7245.6412   -16277.932 
  192250    295.26186   -37.474051    167047.12   -23590.697    7164.1728   -16426.524 
  192500    299.70697    -137.8607    168567.41   -23324.496     7272.028   -16052.468 
  192750    296.23755    38.244307    167519.26   -23405.168    7187.8467   -16217.322 
  193000    298.88809    -37.07416    168710.94    -23284.12     7252.159   -16031.961 
  193250    296.52247   -161.60256    168836.06   -23388.448    7194.7601   -16193.688 
  193500    303.12805   -20.954562    168331.86    -23329.79    7355.0365   -15974.754 
  193750    299.78244    48.781856    168126.15   -23355.034    7273.8593   -16081.174 
  194000    296.54614   -148.06481    167843.69   -23460.371    7195.3344   -16265.036 
  194250     297.8766    198.12135    168020.09   -23296.619    7227.6164   -16069.002 
  194500    300.40827    138.30255    168169.09   -23255.925    7289.0443    -15966.88 
  194750    300.13522    46.698066    167340.35    -23450.99    7282.4191   -16168.571 
  195000    301.28189    -12.27766    166860.51   -23414.857    7310.2417   -16104.615 
  195250    292.05354   -27.995865    167641.34   -23381.543    7086.3269   -16295.216 
  195500    303.44251   -149.09418    168133.76   -23427.894    7362.6665   -16065.228 
  195750    302.80259    27.242839    167053.81    -23475.13    7347.1395   -16127.991 
  196000      297.305   -36.882644    167331.94   -23496.621    7213.7472   -16282.874 
  196250    300.44332   -240.60482    167493.15   -23509.853    7289.8947   -16219.958 
  196500    299.99582    57.746191    168051.16   -23343.186    7279.0367    -16064.15 
  196750     300.3124    91.628877    167464.76   -23403.181    7286.7182   -16116.463 
  197000    298.76759   -52.937064    166578.38   -23502.357    7249.2352   -16253.121 
  197250     298.7374   -314.14537     166600.7   -23515.798    7248.5027   -16267.296 
  197500    295.20777    24.343752    167377.43   -23317.713    7162.8604   -16154.853 
  197750     301.2635    210.30668       166968   -23287.114    7309.7955   -15977.319 
  198000    298.72005    67.369186    166556.89   -23520.478    7248.0818   -16272.396 
  198250    301.09643     107.7693     168684.9   -23304.921    7305.7417   -15999.179 
  198500     302.1211   -49.586035    167967.93   -23449.749     7330.604   -16119.145 
  198750    302.08004    191.92462    168604.52   -23254.785    7329.6077   -15925.177 
  199000    298.89591    236.10264    168119.71   -23296.559    7252.3488    -16044.21 
  199250    301.27252    189.65297     167290.7    -23397.22    7310.0144   -16087.205 
  199500    296.03271    185.49109    167431.63   -23385.464    7182.8767   -16202.587 
  199750    297.13468   -252.69657    169247.72   -23332.918    7209.6146   -16123.303 
  200000     302.1171   -277.95553    168049.99   -23382.089    7330.5071   -16051.582 
  200250    298.18158   -66.592623    168292.57   -23318.181    7235.0163   -16083.165 
  200500    298.16873    98.198061    167711.43   -23315.672    7234.7045   -16080.967 
  200750    295.70241   -19.512249    166862.61   -23410.902    7174.8622    -16236.04 
  201000     298.5842   -2.5250953    167948.64   -23392.184    7244.7856   -16147.398 
  201250    298.76805   -364.51918    168848.12   -23325.626    7249.2463    -16076.38 
  201500    298.55575    10.459117    167077.23    -23507.39    7244.0952   -16263.295 
  201750    302.16982   -7.6913519    167582.96   -23434.981    7331.7861   -16103.194 
  202000    302.07521    78.193777    169164.71   -23150.813    7329.4905   -15821.322 
  202250    299.68422    -167.8134    168791.13   -23230.867     7271.476   -15959.391 
  202500    299.84217   -97.490416     168690.1     -23407.2    7275.3087   -16131.891 
  202750    297.32021   -55.781742    167871.24   -23409.967    7214.1162   -16195.851 
  203000    300.98352    118.44075    166499.02   -23470.966    7303.0022   -16167.964 
  203250    299.07003    112.76919    166675.74   -23378.618    7256.5735   -16122.045 
  203500     298.2488    124.99416    165903.68   -23504.202    7236.6474   -16267.555 
  203750    298.06776   -9.2338017    167522.06   -23475.081    7232.2547   -16242.827 
  204000    299.63964   -83.001087    167226.99    -23377.02    7270.3944   -16106.625 
  204250     297.5925   -131.46666     167330.8   -23467.715    7220.7232   -16246.992 
  204500     298.4246   -25.079787    168364.26   -23322.887     7240.913   -16081.974 
  204750     299.1178   -39.727024    167478.45   -23362.807    7257.7326   -16105.074 
  205000    300.20239    -50.72224    166995.17   -23427.294    7284.0488   -16143.245 
  205002    300.01283   -55.834942    166950.11   -23421.504    7279.4495   -16142.054 
Loop time of 10351.8 on 1 procs (1 MPI x 1 OpenMP) for 100000 steps with 12061 atoms

Pair  time (%) = 7260.28 (70.1354)
Bond  time (%) = 120.204 (1.16119)
Kspce time (%) = 1005.85 (9.7167)
Neigh time (%) = 1024.61 (9.8979)
Comm  time (%) = 35.0583 (0.338668)
Outpt time (%) = 0.726722 (0.00702024)
Other time (%) = 905.07 (8.74311)

FFT time (% of Kspce) = 245.228 (24.3801)
FFT Gflps 3d (1d only) = 1.56566 2.30937

Nlocal:    12061 ave 12061 max 12061 min
Histogram: 1 0 0 0 0 0 0 0 0 0
Nghost:    30206 ave 30206 max 30206 min
Histogram: 1 0 0 0 0 0 0 0 0 0
Neighs:    3.14643e+06 ave 3.14643e+06 max 3.14643e+06 min
Histogram: 1 0 0 0 0 0 0 0 0 0

Total # of neighbors = 3146433
Ave neighs/atom = 260.877
Ave special neighs/atom = 2.24608
Neighbor list builds = 8956
Dangerous builds = 0
write_restart   confout-2.data
PPPM initialization ...
  G vector (1/distance) = 0.257678
  grid = 60 18 18
  stencil order = 5
  estimated absolute RMS force accuracy = 0.0342072
  estimated relative force accuracy = 0.000103014
  using double precision FFTs
  3d grid and FFT values/proc = 40625 19440
