LAMMPS (24 Apr 2013)
WARNING: OMP_NUM_THREADS environment is not set. (../comm.cpp:100)
  using 1 OpenMP thread(s) per MPI task
# LAMMPS 2005 MD Simulation Parameters - Generated by XenoView
# Structure file "C:\Users\laflij\Dropbox\Xenoview\34m.lmp"
# Source force field file pcff_d.frc

# Define units and force field
units		real
atom_style	full
boundary	p p p
pair_style	lj/class2/coul/long 7 10
bond_style      class2
angle_style     class2
dihedral_style  class2
improper_style  class2
kspace_style	pppm 0.0001

pair_modify mix sixthpower

# Read system data
read_data	100cPE.data
  2 = max bonds/atom
  6 = max angles/atom
  9 = max dihedrals/atom
  4 = max impropers/atom
  orthogonal box = (-100 -20 -20) to (100 20 20)
  1 by 1 by 1 MPI processor grid
  12061 atoms
  8140 bonds
  4517 angles
  888 dihedrals
  397 impropers
  4 = max # of 1-2 neighbors
  6 = max # of 1-3 neighbors
  12 = max # of 1-4 neighbors
  16 = max # of special neighbors

# Energy minimization (polymer initially stretched)
#minimize 1.0e-16 1.0e-16 10000 100000

# Write initial structure out, as post relaxation
dump            icrd all custom 5 system.lammpstrj id mol type x y z ix iy iz
dump_modify     icrd sort id
run             1
WARNING: No fixes defined, atoms won't move (../verlet.cpp:54)
PPPM initialization ...
  G vector (1/distance) = 0.251036
  grid = 72 20 20
  stencil order = 5
  estimated absolute RMS force accuracy = 0.0346421
  estimated relative force accuracy = 0.000104324
  using double precision FFTs
  3d grid and FFT values/proc = 52052 28800
Memory usage per processor = 39.3293 Mbytes
Step Temp E_pair E_mol TotEng Press 
       0            0    -13283.27    5683.5304   -7599.7396   -4563.0449 
       1            0    -13283.27    5683.5304   -7599.7396   -4563.0449 
Loop time of 0.0671859 on 1 procs (1 MPI x 1 OpenMP) for 1 steps with 12061 atoms

Pair  time (%) = 0.054424 (81.0052)
Bond  time (%) = 0.00230193 (3.42621)
Kspce time (%) = 0.010138 (15.0895)
Neigh time (%) = 0 (0)
Comm  time (%) = 0.000183105 (0.272536)
Outpt time (%) = 8.2016e-05 (0.122073)
Other time (%) = 5.67436e-05 (0.0844577)

FFT time (% of Kspce) = 0.00252315 (24.888)
FFT Gflps 3d (1d only) = 2.34407 4.4984

Nlocal:    12061 ave 12061 max 12061 min
Histogram: 1 0 0 0 0 0 0 0 0 0
Nghost:    19842 ave 19842 max 19842 min
Histogram: 1 0 0 0 0 0 0 0 0 0
Neighs:    1.67447e+06 ave 1.67447e+06 max 1.67447e+06 min
Histogram: 1 0 0 0 0 0 0 0 0 0

Total # of neighbors = 1674473
Ave neighs/atom = 138.834
Ave special neighs/atom = 2.24608
Neighbor list builds = 0
Dangerous builds = 0

# Reset the timestep
undump          icrd
reset_timestep  0

# Timestep and Neighbour searching
timestep	1
neighbor	2.0 bin
neigh_modify	every 1 delay 0 check yes


# Computes
#compute rdf all rdf 100 1 1 1 2 2 2
#compute msd all msd com yes

# Fixes
fix		1 all shake 0.0001 20 0 b 3 a 4
  0 = # of size 2 clusters
  0 = # of size 3 clusters
  0 = # of size 4 clusters
  3920 = # of frozen angles
fix		2 all npt temp 300.0 300.0 100.0 iso 1.0 1.0 100.0
#fix		 rdf all ave/time 1 500000 500000 c_rdf file rdf.xvg mode vector
#fix		 msd all ave/time 1 500000 500000 c_msd file msd.xvg mode vector

# Initial velocity
velocity	all create 300 432567 dist uniform

# Write out thermodynamic information
thermo_style    custom step temp press vol pe ke evdwl ecoul epair
thermo	        250

# Write out trajectory
dump            cxtc all xtc 250 traj-0.xtc

# Write out velocity
#dump 		 1 all custom 1 vel_npt.txt vx vy vz

# Checkpoint files
#restart        5000 state_cpt-*.data

# Final run command
run             5000
PPPM initialization ...
  G vector (1/distance) = 0.251036
  grid = 72 20 20
  stencil order = 5
  estimated absolute RMS force accuracy = 0.0346421
  estimated relative force accuracy = 0.000104324
  using double precision FFTs
  3d grid and FFT values/proc = 52052 28800
Memory usage per processor = 39.5861 Mbytes
Step Temp Press Volume PotEng KinEng E_vdwl E_coul E_pair 
       0          300   -27750.222       320000    -7771.583    7279.1381   -5474.3428    176772.06    -13283.27 
     250    394.53667   -243.50809    218363.75   -18160.458    9572.9563   -5018.7642    170208.49   -20468.963 
     500    353.27556     95.84603    213020.83    -20908.82    8571.8053    -5588.627     169326.9   -21972.071 
     750    302.12598     155.8874    208145.96   -22202.282    7330.7226   -5783.9797    168591.69   -22935.786 
    1000    297.94442    260.91697    203832.11   -22550.298    7229.2621   -5882.5181    168395.42   -23241.726 
    1250    304.36239   -98.770565    200457.25   -22281.257    7384.9863   -6061.4056    168833.85   -22969.159 
    1500    297.21467    8.3763659    195909.01   -22580.912    7211.5555   -6116.5861    168617.19   -23253.764 
    1750     304.3633    22.693828    189353.33   -22945.631    7385.0083   -6191.1556    168389.51   -23556.604 
    2000    300.61749   -218.53223    186990.37   -22745.101    7294.1207   -6312.4478    168649.65   -23419.264 
    2250    296.32804    6.2848272    181654.71    -22987.79    7190.0425   -6291.3652    168390.88   -23660.703 
    2500    298.95184   -271.83398    179169.27   -23134.213    7253.7059   -6497.3268    168555.83   -23719.256 
    2750    303.48656   -4.1208263    175689.98   -23241.563    7363.7353   -6548.6518    168515.75   -23801.073 
    3000    294.67786    137.49243    171857.61   -23415.103    7150.0029   -6531.4551    168317.99   -23998.521 
    3250    307.45196    261.08514    171416.35   -23549.326    7459.9511    -6534.618    168289.21   -24023.456 
    3500    296.80398   -95.975731    172574.19   -23331.802    7201.5907   -6539.8954    168514.09   -23807.526 
    3750    301.63635   -23.619091    170308.59   -23439.325    7318.8422   -6545.7654    168416.58   -23910.515 
    4000    301.68168   -84.398193       168344   -23511.001    7319.9421   -6638.9827    168440.01   -23989.626 
    4250    304.62454   -11.787629    169027.19   -23574.339     7391.347   -6586.4314    168356.51   -24017.556 
    4500    300.36736     119.6571    168382.31   -23490.988    7288.0517   -6576.3529    168472.65   -23895.702 
    4750    300.35742   -24.586781    167491.32   -23475.609    7287.8105   -6692.7186    168529.84   -23952.942 
    5000    299.37554    101.16288     165998.8   -23626.323    7263.9863   -6674.6205    168421.15   -24044.699 
Loop time of 497.283 on 1 procs (1 MPI x 1 OpenMP) for 5000 steps with 12061 atoms

Pair  time (%) = 332.841 (66.9318)
Bond  time (%) = 6.04799 (1.21621)
Kspce time (%) = 52.2708 (10.5113)
Neigh time (%) = 43.1535 (8.67785)
Comm  time (%) = 1.59785 (0.321317)
Outpt time (%) = 0.0236597 (0.00475779)
Other time (%) = 61.3489 (12.3368)

FFT time (% of Kspce) = 12.6591 (24.2182)
FFT Gflps 3d (1d only) = 2.33605 4.49889

Nlocal:    12061 ave 12061 max 12061 min
Histogram: 1 0 0 0 0 0 0 0 0 0
Nghost:    28633 ave 28633 max 28633 min
Histogram: 1 0 0 0 0 0 0 0 0 0
Neighs:    3.19818e+06 ave 3.19818e+06 max 3.19818e+06 min
Histogram: 1 0 0 0 0 0 0 0 0 0

Total # of neighbors = 3198181
Ave neighs/atom = 265.167
Ave special neighs/atom = 2.24608
Neighbor list builds = 421
Dangerous builds = 0
write_restart   confout-0.data
PPPM initialization ...
  G vector (1/distance) = 0.257846
  grid = 60 18 18
  stencil order = 5
  estimated absolute RMS force accuracy = 0.0340089
  estimated relative force accuracy = 0.000102417
  using double precision FFTs
  3d grid and FFT values/proc = 40625 19440
