LAMMPS (24 Apr 2013)
WARNING: OMP_NUM_THREADS environment is not set. (../comm.cpp:100)
  using 1 OpenMP thread(s) per MPI task
# ----------------- Init Section -----------------
units           real
atom_style      full
boundary		p p p
kspace_style	pppm 1.0e-4

# ----------------- Atom Definition Section -----------------
read_restart	confout-2.data
  orthogonal box = (14.6308 2.78152 2.78152) to (248.369 47.2185 47.2185)
  1 by 1 by 1 MPI processor grid
  44200 atoms
  29498 bonds
  14700 angles
  2 = max # of 1-2 neighbors
  2 = max # of 1-3 neighbors
  4 = max # of 1-4 neighbors
  6 = max # of special neighbors

# ----------------- Settings Section -----------------------

group 			spc		type	1 2
44100 atoms in group spc
group			p1_end_atom	id 	44150
1 atoms in group p1_end_atom
group			p2_end_atom	id 	44200
1 atoms in group p2_end_atom

# ----------------- Run Section -----------------
# Write initial structure out
dump            icrd all custom 5 system-3.lammpstrj id mol type x y z ix iy iz
dump_modify     icrd sort id
run             1
WARNING: No fixes defined, atoms won't move (../verlet.cpp:54)
PPPM initialization ...
  G vector (1/distance) = 0.263116
  grid = 90 25 25
  stencil order = 5
  estimated absolute RMS force accuracy = 0.0403477
  estimated relative force accuracy = 0.000121506
  using double precision FFTs
  3d grid and FFT values/proc = 97280 56250
Memory usage per processor = 114.769 Mbytes
Step Temp E_pair E_mol TotEng Press 
  250002    197.78762   -144527.08    26.848074   -118441.95    23889.582 
  250003    197.78762   -144527.08    26.848074   -118441.95    23889.582 
Loop time of 0.478912 on 1 procs (1 MPI x 1 OpenMP) for 1 steps with 44200 atoms

Pair  time (%) = 0.439205 (91.7089)
Bond  time (%) = 0.00336003 (0.701597)
Kspce time (%) = 0.0351391 (7.33727)
Neigh time (%) = 0 (0)
Comm  time (%) = 0.000715017 (0.1493)
Outpt time (%) = 0.000247002 (0.0515756)
Other time (%) = 0.000246048 (0.0513764)

FFT time (% of Kspce) = 0.0081243 (23.1204)
FFT Gflps 3d (1d only) = 1.51456 2.97626

Nlocal:    44200 ave 44200 max 44200 min
Histogram: 1 0 0 0 0 0 0 0 0 0
Nghost:    69761 ave 69761 max 69761 min
Histogram: 1 0 0 0 0 0 0 0 0 0
Neighs:    1.45805e+07 ave 1.45805e+07 max 1.45805e+07 min
Histogram: 1 0 0 0 0 0 0 0 0 0

Total # of neighbors = 14580484
Ave neighs/atom = 329.875
Ave special neighs/atom = 2.00851
Neighbor list builds = 0
Dangerous builds = 0

# Reset the timestep
undump          icrd

# Timestep and Neighbour searching
timestep		2.0
neighbor        2.0 bin
neigh_modify	delay 4 every 1 check yes

# Fixes
fix 			pull p1_end_atom addforce  1.0 0.0 0.0
fix 			pull p2_end_atom addforce -1.0 0.0 0.0
WARNING: Replacing a fix, but new group != old group (../modify.cpp:657)
fix 			shake spc shake 0.0001 10 0 b 1 a 1
  0 = # of size 2 clusters
  0 = # of size 3 clusters
  0 = # of size 4 clusters
  14700 = # of frozen angles
fix   			npt all npt temp 300.0 300.0 100.0 iso 1.0 1.0 1000.0

# Initial velocity
#velocity		all create 300 432567 dist uniform

# Write out thermodynamic information
thermo_style    custom step temp press vol pe ke evdwl ecoul epair
thermo	        250

# Write out trajectory
dump            cxtc all xtc 250 traj-3.xtc

# Write out velocity
#dump 			1 all custom 1 vel_npt.txt vx vy vz

# Checkpoint files
restart         5000 state_cpt-*.data

# Final run command
run             100000
PPPM initialization ...
  G vector (1/distance) = 0.263116
  grid = 90 25 25
  stencil order = 5
  estimated absolute RMS force accuracy = 0.0403477
  estimated relative force accuracy = 0.000121506
  using double precision FFTs
  3d grid and FFT values/proc = 97280 56250
Memory usage per processor = 121.374 Mbytes
Step Temp Press Volume PotEng KinEng E_vdwl E_coul E_pair 
  250003    296.34953   -83.464123     461549.9   -144500.24    26058.286    24471.552    561351.55   -144527.08 
  250250    298.24427    114.34933    460646.47   -144931.88    26224.892    24992.007    560390.83   -144960.66 
  250500    296.93768   -15.271995    460293.63   -144718.33    26110.002    24659.049    560942.52   -144747.77 
  250750    300.99529   -61.691991    460148.56   -145090.13    26466.792    24607.411    560631.06   -145123.24 
  251000     301.1246    62.760564    458347.81   -145324.99    26478.161    24831.755     560179.7   -145354.77 
  251250    300.11389   -10.299449    459927.45   -144849.16    26389.289    24607.337    560867.26   -144874.86 
  251500    300.87283    -8.614744    460411.03   -144806.35    26456.023    24604.313    560918.41   -144834.82 
  251750    301.09888    56.290389    459746.74   -144767.23      26475.9    24753.312    560808.67   -144793.42 
  252000    301.76865    71.525868    459482.32   -144774.55    26534.793    24796.488       560757   -144802.86 
  252250     301.1063    211.10427    457386.72    -145025.8    26476.553    25012.261    560291.82   -145050.99 
  252500    301.02918    113.89146    459488.77   -145190.94    26469.771    25039.228     560089.3   -145220.43 
  252750    299.53731    109.18535    460288.15   -144758.21     26338.59    24817.934    560737.21   -144783.49 
  253000    300.10614    -73.16975    458918.45   -145289.73    26388.607    24554.457    560466.29   -145321.33 
  253250    300.76542   -17.607136    459127.15   -145031.56    26446.579     24648.96    560645.14   -145066.38 
  253500    298.91739    147.87056    460253.47   -144600.03     26284.08     24813.78    560903.65   -144635.41 
  253750    301.32573    7.9941001    460482.89   -144928.45    26495.847    24745.383    560651.11   -144958.09 
  254000    299.43639   -118.75543    459927.69   -145015.52    26329.716    24433.574    560851.72    -145053.7 
  254250     298.5542   -40.197259    459465.79    -145034.4    26252.144    24604.639    560689.33   -145065.22 
  254500    297.20519    68.802823    460096.62   -144711.04    26133.525    24748.088    560866.46   -144734.08 
  254750    300.11171   -138.40507    460975.79   -144615.52    26389.097    24299.583    561411.52   -144643.58 
  255000    301.97529   -89.506831    461612.66   -144869.57    26552.964    24461.898    560996.36    -144898.9 
  255250    300.84977   -30.843152     460509.6   -145014.96    26453.996    24689.717    560616.72   -145046.93 
  255500    298.63113   -96.297101    459462.59   -144579.44    26258.908     24382.98    561359.54   -144606.24 
  255750    300.84109    105.80936     458770.8   -144933.67    26453.232    24904.772    560483.33   -144962.81 
  256000    298.65277    -33.89506    459957.33   -144700.95    26260.811    24572.048    561048.48   -144734.19 
  256250    298.41522   -49.155769    461002.41   -144718.55    26239.923    24612.025    560993.43   -144744.23 
  256500    299.24656   -26.477044    461455.05   -145044.78    26313.024    24755.523    560535.76   -145070.99 
  256750     298.7546    69.884323    460359.65   -144803.16    26269.765    24762.538    560751.31   -144830.32 
  257000    300.13017    72.429261    459384.53   -144894.27     26390.72    24793.922    560624.01   -144929.72 
  257250    301.80453   -110.10661     459119.8   -145072.72    26537.949    24396.259    560858.61   -145102.52 
  257500    301.54278   -95.506706    461289.96   -144747.54    26514.932    24539.112    561038.36   -144774.29 
  257750    300.89129   -179.00945    460235.65   -145125.59    26457.647    24469.275     560732.4   -145160.12 
  258000    299.98701    40.770505    460865.53   -145042.56    26378.133    24883.011    560387.89   -145075.39 
  258250    299.37112    39.985946    460127.71   -144877.66    26323.977     24741.97    560714.02   -144911.52 
  258500    301.05607   -90.551013    459751.01   -144735.49    26472.136    24348.949    561207.23   -144767.17 
  258750    299.20884    57.576329    460739.94   -145056.25    26309.708    24869.012    560410.32   -145086.12 
  259000    300.60355    66.929467    461497.04   -144797.42    26432.345     24809.31    560718.34    -144829.2 
  259250    299.25312    137.01744    459336.02   -145255.38    26313.601    24961.957    560133.87   -145284.96 
  259500    300.93171   -43.176686    462039.92   -145072.98    26461.201    24792.667    560480.96   -145097.42 
  259750    300.06098    121.31702     460972.5   -145251.23    26384.637    25047.531    560031.61   -145275.61 
  260000    300.96682    32.450453    461481.39    -144834.8    26464.288    24788.303     560702.3   -144862.49 
  260250    302.02239   -39.254863    461542.87   -145021.46    26557.105    24638.288    560681.83   -145048.56 
  260500    303.70356     22.68309    461327.48    -145015.2    26704.932    24749.693    560573.82   -145042.58 
  260750    299.05953    75.646537    459281.17    -145082.4    26296.579    24887.376    560362.73   -145110.26 
  261000    302.51054    8.3351166    460276.96    -144890.4    26600.029    24673.178    560753.14   -144923.47 
  261250      302.377    122.54527    459803.41   -144907.39    26588.286     24880.57    560536.44   -144933.07 
  261500    302.54433   -129.87775    461883.33   -144832.48        26603    24472.569    561025.62   -144861.82 
  261750    300.62438   -22.483534    461107.44   -145335.76    26434.177    24863.586    560119.71   -145368.49 
  262000    299.33777    56.533147    459925.98   -144908.49    26321.045     24821.16    560573.42   -144941.76 
  262250    300.79436   -36.123509    460225.91   -145123.92    26449.124    24643.423    560565.43   -145151.08 
  262500    297.74426   -150.37409    462799.01   -145120.74    26180.926    24582.956    560626.08   -145148.83 
  262750    300.86048    49.448381    460324.58   -145149.89    26454.938    24926.485    560257.07   -145173.94 
  263000    299.58652    131.92305    459142.15   -144834.09    26342.917    24841.679    560664.79   -144866.48 
  263250    300.03861   -66.124076    459661.16    -145087.8     26382.67    24625.502    560583.45   -145114.38 
  263500    299.13982   -76.159739    460518.69   -144961.27    26303.638    24594.976    560776.36   -144986.84 
  263750    299.01288   -211.25136    460888.17   -145163.51    26292.477    24396.004    560776.11   -145186.37 
  264000    301.98402    26.093175    460796.75   -144654.74    26553.732    24645.341     561022.5    -144681.1 
  264250    302.43923   -69.962491    461064.87   -145044.16    26593.758    24685.239    560575.15      -145077 
  264500    302.80329    98.648158    459741.97   -144973.35    26625.771    24861.775    560481.31   -145003.34 
  264750     299.8814   -35.435155    460562.21   -145132.48    26368.847     24737.14    560454.49   -145157.84 
  265000    298.47276    47.932287    460490.54   -144921.69    26244.983    24728.731     560645.1   -144954.26 
  265250     300.1463    23.852129    459930.23   -144910.44    26392.139     24743.87    560651.42   -144943.55 
  265500     301.1117    19.792751    459672.83   -145031.73    26477.027    24769.728    560512.25   -145065.71 
  265750    299.84007     61.15982    459318.24   -144957.28    26365.212    24760.239     560609.8   -144985.58 
  266000    299.12279    -53.34832    458717.71   -144970.42    26302.141    24570.506    560773.36    -144997.8 
  266250    301.40411    11.624295    460162.53   -144578.79    26502.739    24571.422    561159.54   -144602.87 
  266500    299.63209    56.313324    459148.03   -144671.18    26346.924     24672.61    560974.61   -144705.96 
  266750    300.53041    60.717229    459670.61   -144725.12    26425.914    24670.657    560914.87   -144761.17 
  267000    299.16407   -30.610201    460284.02   -144674.05    26305.771    24539.213     561110.2   -144704.82 
  267250    297.36704   -77.429787    459439.02    -144923.5    26147.757     24547.96    560850.17   -144956.35 
  267500    296.85258    -203.0738    458944.54   -145060.54    26102.519    24235.364    561011.19      -145094 
  267750    296.96941   -211.67673    457992.26   -145202.07    26112.792    24262.941    560864.95   -145232.34 
  268000     299.9756    4.4048908     459748.9   -144479.97     26377.13    24470.431    561370.21   -144508.39 
  268250    299.30031    50.672225    459382.72    -144964.6     26317.75    24744.608    560598.85   -144992.49 
  268500    300.42742   -106.14415    459401.89   -144739.93    26416.858    24307.379    561279.07   -144765.32 
  268750    299.84738    29.363072    459329.13   -145151.97    26365.855    24810.702    560341.93   -145181.21 
  269000    301.61659   -20.180343    458887.21   -145185.82    26521.423    24618.188    560525.25   -145215.94 
  269250    300.54107   -15.866525    460409.73   -144766.94    26426.852    24574.831    560978.28   -144795.51 
  269500    299.55069    59.140531     459902.8   -145031.31    26339.767    24872.974    560422.68   -145055.57 
  269750    300.07239   -31.372084    460397.32   -145182.07     26385.64    24774.992    560378.39   -145207.93 
  270000    301.00469    74.366689    459797.33   -144987.71    26467.618     24890.42    560468.95   -145013.55 
  270250     298.9466   -100.84513    462027.71   -144596.02    26286.648    24547.366    561171.47   -144623.17 
  270500     298.8174    48.827684    459391.43   -144654.55    26275.287    24674.129    560996.13   -144683.16 
  270750    300.07353    136.47367     458266.2   -145166.28     26385.74    24864.926    560292.56   -145199.05 
  271000    300.59962   -18.580032    460899.85   -145018.14        26432    24732.605    560575.56   -145051.15 
  271250    300.50301   -54.659085    460982.97   -145042.87    26423.504    24672.852    560620.34   -145073.65 
  271500     299.0658    127.45384    459278.39    -144965.3    26297.129    24858.756    560482.36    -144995.8 
  271750    300.71343   -64.945922    460390.92   -144924.15    26442.008    24580.948    560813.49   -144959.02 
  272000    300.42854    13.354618    460229.66   -144829.02    26416.957    24715.043    560787.72    -144859.7 
  272250     301.4036    89.757956    460806.29   -144709.89    26502.694    24857.664     560754.7      -144744 
  272500    299.49085    24.781724    460794.94   -144568.44    26334.505    24619.804    561124.59    -144606.3 
  272750    300.53494    83.158734    459532.87   -145007.09    26426.312     24783.13    560524.61   -145042.22 
  273000    299.73255   -230.49185    460646.29   -144996.17    26355.758    24279.164    561069.17   -145028.02 
  273250    298.62199     146.3291    459532.77   -145338.62    26258.105     25111.89    559860.65   -145372.67 
  273500     300.8806   -92.344829    461179.93      -144728    26456.707    24524.246    561063.64   -144766.54 
  273750     299.3195   -169.47531    460897.79   -145320.98    26319.437    24587.935     560410.7   -145349.05 
  274000    300.12663    253.41867    459393.24   -145108.91     26390.41    25255.796    559962.56   -145139.23 
  274250    298.33808   -141.64029    461280.67   -144794.89     26233.14    24429.616     561085.1   -144834.73 
  274500    297.71042    43.516874    460463.71   -144815.86     26177.95    24719.681     560779.6    -144850.3 
  274750    299.96815    27.236767    460096.97   -145019.91    26376.474    24799.848    560488.99   -145053.74 
  275000     303.0927    50.172508    459972.11   -145052.06    26651.219    24833.179    560433.11    -145089.4 
  275250    301.69832   -62.322565    459790.55   -145008.26    26528.609    24523.644    560800.46   -145035.75 
  275500    301.77365   -46.496031    459199.01   -145124.01    26535.233    24530.442    560663.35   -145158.82 
  275750    300.22989   -114.92575    460739.59   -144859.92    26399.489    24443.416    561023.19   -144897.12 
  276000    299.99011   -29.414493    459557.62   -144824.99    26378.405    24560.129    560926.96   -144859.87 
  276250     297.3489   -163.49098    460927.12   -144915.28    26146.161     24427.18    561007.34   -144941.98 
  276500    300.62911    29.038407    460884.78   -145242.15    26434.593    24922.392    560157.28   -145280.63 
  276750    302.04766   -38.620536    461508.42   -144868.79    26559.327     24655.34    560790.98   -144903.83 
  277000    299.97443    88.432028    459979.46   -144960.62    26377.027    24950.445     560413.1   -144994.28 
  277250    298.16464   -129.49474     462502.5   -144749.73     26217.89     24560.35    560997.08   -144784.53 
  277500    300.66443    55.130066    460994.13   -145068.27    26437.699    24968.802    560300.81   -145101.77 
  277750    300.85008    134.73091    461867.09   -145160.31    26454.023    25185.025    559976.01   -145196.33 
  278000    299.40752    16.415378    461088.13   -144840.53    26327.177    24714.805    560765.79   -144876.32 
  278250    299.38367    86.455766    458129.79   -145341.05     26325.08    24923.278    560034.96   -145379.04 
  278500    298.28255   -93.262443    459402.41   -145035.72    26228.258    24504.423    560762.72   -145067.76 
  278750     301.1895    24.278687    459500.77   -144860.17    26483.868    24675.516    560790.16   -144896.28 
  279000    299.45798   -8.8099492    461387.13   -144690.98    26331.615     24669.04    560947.99   -144720.11 
  279250    301.27354    110.76379    459350.82   -145042.98    26491.258    24890.768    560389.09   -145078.27 
  279500    298.85502   -136.21356    461259.47    -144825.9    26278.595    24448.675    561043.68   -144860.23 
  279750    298.08019   -1.6313896    460215.22   -144849.26    26210.464    24667.058    560795.97   -144890.95 
  280000    298.13385   -51.193777    460122.09   -145031.59    26215.182    24709.141    560576.77   -145067.51 
  280250    300.52765   -6.6153769    459040.02   -145104.34    26425.671     24695.07    560502.91    -145145.2 
  280500    302.48092   -8.9576431    459357.61   -145087.56    26597.424    24674.978    560566.07   -145120.16 
  280750     300.2486    28.486704    459381.79   -144782.46    26401.134     24668.41    560872.47   -144815.73 
  281000    301.18533    163.88546    458652.46   -145117.54    26483.501    25025.622    560194.67   -145151.35 
  281250    299.17381   -9.0011081    460674.54   -145003.93    26306.627    24708.709    560618.42   -145035.17 
  281500    298.37377   -64.947593    460397.52   -144921.18    26236.278    24570.928    560849.22   -144950.15 
  281750    301.11156    66.146932    458416.26   -145163.97    26477.015    24856.964    560298.73   -145199.82 
  282000    298.72558    106.73004    460254.93   -144816.84    26267.214    24887.397    560623.72   -144853.31 
  282250    303.25923    211.02468    459236.55   -145015.87    26665.862    25061.564    560256.63   -145045.49 
  282500    302.44363   -59.823278    460014.53      -145052    26594.145    24595.919    560675.67    -145082.8 
  282750    300.23023    13.366594     458335.6   -144874.16    26399.519    24542.118    560909.23   -144908.67 
  283000    299.88797     -221.032    461028.37    -144925.4    26369.424    24398.375    560994.38   -144956.29 
  283250    298.76367    212.97235    458124.88   -145142.63    26270.563    25059.865    560098.17   -145170.11 
  283500    297.85132     4.615897     458440.1   -144832.11     26190.34    24662.796    560822.63   -144865.88 
  283750    297.77026   -44.975802     458985.4    -145051.9    26183.211    24604.421    560662.32    -145080.3 
  284000    300.94934      23.6706    460502.18   -144850.34    26462.751    24783.166    560703.71   -144874.07 
  284250    299.07934    17.332635    460853.94   -144700.73     26298.32    24661.787    560969.16   -144729.52 
  284500    299.32145   -12.684528    459534.37   -145294.09    26319.609    24764.278    560270.81   -145325.24 
  284750    298.24955   -51.637832    460416.98   -144981.37    26225.356    24674.979    560672.48   -145008.17 
  285000    297.65004   -131.67897     461009.7   -144918.57    26172.641    24441.011    560970.45   -144942.33 
  285250    299.45791   -50.410073    460285.37   -145208.24    26331.608    24775.067    560340.88   -145238.77 
  285500    298.38963   -18.148556       459854   -145112.04    26237.673    24761.354    560461.51   -145139.76 
  285750    298.87751   -62.008478    459936.35   -145273.02    26280.573    24717.201    560367.68   -145301.48 
  286000     301.3392    107.27087    458812.03   -145031.96    26497.032    24790.075    560510.44   -145055.47 
  286250     298.8105   -281.57741     459695.3   -145220.79     26274.68    24164.879     560937.6   -145246.88 
  286500    301.31998   -141.20368    460485.55   -144972.13    26495.342    24421.868    560932.17   -145002.95 
  286750    302.27874    67.812541    459882.31   -144832.87    26579.646    24742.076    560747.22   -144860.83 
  287000    297.15973   -12.870835    459747.76   -145074.76    26129.528    24743.848    560518.61   -145100.42 
  287250    299.30783    115.67108    460154.96   -144677.54    26318.412    24783.051    560842.38   -144708.45 
  287500    299.09617    35.641871     462077.7   -144652.67      26299.8    24718.028    560936.63   -144685.31 
  287750    299.05123    29.597373    460397.41   -145229.78    26295.848    24909.147     560195.8   -145251.48 
  288000    298.07742    11.130535    461004.62   -145008.91     26210.22    24793.114    560512.81   -145039.53 
  288250    297.63373   -151.56343    462137.26   -145147.69    26171.206    24572.133    560599.94   -145180.88 
  288500    298.15495    8.9944222    459125.99   -145410.75    26217.038    24894.762    560028.88   -145438.07 
  288750    302.62939   -46.248105     459574.7   -145031.31    26610.479     24608.77    560671.55   -145057.18 
  289000    299.63219    64.665946     460187.1   -144805.72    26346.933    24806.128    560704.94    -144839.9 
  289250    297.74584   -59.719992    460572.39   -145154.41    26181.065    24709.543    560464.47   -145188.63 
  289500    299.07583   -23.166264    460535.93    -145340.2    26298.012     24878.86    560103.83   -145369.32 
  289750    301.20749    -21.64102    460697.01   -145017.52     26485.45    24687.139    560624.63   -145045.53 
  290000    300.20801   -43.499422    460285.28    -145154.6    26397.566    24721.018    560451.55   -145187.61 
  290250    301.50268    81.250002     458980.5   -145120.36    26511.407    24797.255    560404.57   -145159.19 
  290500    299.47322    105.46876    459216.39   -145058.86    26332.955    24920.855    560329.14   -145092.42 
  290750    303.34711     33.05801    458615.44   -145143.71    26673.589    24757.183    560423.81   -145175.66 
  291000    300.56057    14.519468    459327.43   -145006.12    26428.566    24768.289    560544.55   -145039.42 
  291250    301.16664    72.315873     460074.9   -145017.08    26481.859    24859.823    560435.73   -145051.34 
  291500     298.5703     19.19172    460007.37   -144833.09     26253.56     24767.03    560687.67   -144864.34 
  291750    300.13022    -23.87578    458810.32   -144900.62    26390.725     24574.37    560855.22   -144934.64 
  292000    300.13665    30.263013    458927.18   -145318.97    26391.291    24888.313    560106.95   -145355.65 
  292250    300.82889   -94.861782    460057.15   -145028.95     26452.16    24612.679    560690.08   -145067.01 
  292500    300.33651   -34.882685    460047.61   -144912.52    26408.864    24629.643    560791.06   -144938.96 
  292750    300.45864    157.12836    458623.66      -144865    26419.603     24936.69    560508.68   -144895.12 
  293000    299.01023   -12.494733    458388.48   -145400.13    26292.244    24788.635    560145.18   -145422.13 
  293250    299.45849   -5.6095258    458952.77    -145310.5    26331.659    24781.765    560234.91    -145337.5 
  293500    299.72573    120.92366    458562.98   -145227.16    26355.158    24959.108    560145.77   -145254.26 
  293750    300.03586    99.412276    460510.29   -144852.64    26382.428    24880.345    560566.91   -144880.68 
  294000    299.06312    4.3700879    459404.67   -144891.58    26296.894     24661.66    560782.65   -144915.34 
  294250    299.37233    108.46506    458132.38   -145212.72    26324.083    24903.918    560199.92   -145241.63 
  294500    302.31109   -27.141567    460722.09   -144850.22    26582.491    24626.428    560845.76   -144878.91 
  294750    300.96175    218.50974       460504   -144625.46    26463.843    24970.714    560719.14   -144656.77 
  295000    299.76968   -6.7016988    461108.36   -144832.13    26359.022    24735.174    560776.59   -144858.72 
  295250    303.28482    90.419117    460783.89   -144686.18    26668.112    24761.947    560868.06   -144717.32 
  295500    299.84032   -33.593375    459587.41   -144804.29    26365.233    24500.727     561014.4   -144837.02 
  295750    298.72182    45.021943     459241.5   -144764.41    26266.883    24662.743    560888.09   -144793.63 
  296000    301.90707   -174.45333    459545.62   -145057.57    26546.965    24337.198    560942.39   -145093.01 
  296250    299.32121   -97.724302    459309.59   -145182.26    26319.588    24526.419    560616.01   -145207.49 
  296500    302.31732    35.443441    460298.98   -144859.54    26583.038    24692.638    560768.15    -144886.9 
  296750    299.79086    17.844633    460112.35   -145005.27    26360.884    24758.442    560575.18   -145029.81 
  297000    300.69012   -53.393769    461040.17   -144865.83    26439.958    24588.956    560876.38   -144894.54 
  297250    300.68231   -131.91391    462555.21   -144681.32    26439.271    24444.282    561211.75   -144705.39 
  297500     300.7034    16.335727    459932.12   -145021.27    26441.125    24732.045    560573.43   -145044.84 
  297750    301.17537   -18.568335     458969.5   -144981.95    26482.626    24600.222    560747.91   -145010.66 
  298000    299.51697   -135.22849    458534.35   -145299.31    26336.802    24432.185    560602.27   -145327.49 
  298250     302.0762   -61.921369    458316.79   -145197.41    26561.837    24600.753    560545.73   -145225.18 
  298500    298.19862    82.074446    458336.04   -145238.46    26220.878    24960.902    560139.94   -145272.76 
  298750     300.6928   -104.98045    461319.16   -144856.04    26440.193    24532.044       560936   -144892.36 
  299000    299.48106   -136.38078    459729.86   -144868.79    26333.644     24359.22    561097.65   -144900.84 
  299250    296.19129   -90.804738    459152.11   -145117.73    26044.371    24479.022    560740.36   -145146.56 
  299500    297.71713   -69.088972    461188.07   -145034.67     26178.54    24681.744    560623.75   -145058.47 
  299750    300.17953   -114.71528    459992.51   -145209.08    26395.061    24590.739    560531.93    -145243.4 
  300000    301.10696   -20.082526    459724.56   -144940.57     26476.61     24650.81     560717.9   -144970.64 
  300250    297.72262   -41.352838    459530.99   -145238.48    26179.023    24749.138    560343.25   -145271.84 
  300500    297.94285    38.113065    460304.28   -145052.67    26198.388    24872.882    560411.13   -145075.51 
  300750    300.76309   -167.79809    461094.23   -145107.78    26446.374    24514.914    560688.04   -145135.13 
  301000    300.19428    120.10471    460387.66   -144892.97    26396.358    24990.232    560437.68   -144917.32 
  301250    299.90526   -39.721732    460006.97   -145073.29    26370.944     24636.91    560599.43   -145102.05 
  301500    299.63601     9.781282    457842.78    -145146.5    26347.269    24612.389    560568.86   -145174.49 
  301750     300.8085    67.419121    460281.32   -145210.31    26450.367    25025.727    560094.11   -145238.54 
  302000    300.92187    45.529181    460570.84   -145032.25    26460.336    24825.079     560476.5   -145056.67 
  302250    301.61573   -111.65567    461663.06   -145267.67    26521.347    24680.205     560395.6   -145296.16 
  302500    297.97726    21.573555    459163.68   -144765.21    26201.414    24613.729    560954.78   -144794.37 
  302750    299.72941   -10.827855    458283.69   -145260.78    26355.481    24664.209    560407.49    -145294.3 
  303000    300.21727    40.986654    460556.88   -144914.16    26398.379    24742.882    560668.21   -144935.58 
  303250    300.18109    133.31863    459533.55   -144863.79    26395.198    24842.274    560639.79   -144891.22 
  303500    301.14924    139.00219    459723.67   -144962.37    26480.329    24915.483       560451   -144984.74 
  303750    301.09932   -180.87607    459854.93   -144941.84    26475.939    24272.707    561130.45   -144965.15 
  304000    301.36157    123.76994    459393.07   -144904.65    26498.999    24867.538    560539.93   -144933.73 
  304250    300.45333    17.457069    460226.49   -144898.43    26419.137    24736.558    560705.18   -144920.09 
  304500    297.32234    184.20707    460171.24      -144961    26143.826      25081.7    560279.43   -144990.13 
  304750    301.71189   -84.176835    461347.52   -145048.69    26529.803    24631.198    560649.21   -145075.83 
  305000    298.91593   -3.1511235    460358.26   -144821.92    26283.951    24661.115     560842.2   -144849.01 
  305250    301.45193   -6.6464061    459718.29    -145067.5    26506.945    24689.835    560562.37    -145103.2 
  305500     298.8138    200.27175    459253.61   -145123.77    26274.971     25167.82    560044.09   -145147.08 
  305750     298.8891    -33.11346    460383.91    -145099.2    26281.592    24728.745     560486.3   -145124.43 
  306000    300.84738   -14.180058       458709   -145322.14    26453.785     24723.09     560292.9   -145349.49 
  306250    299.27835   -79.902635    458917.66   -145342.47     26315.82     24615.51    560375.23    -145368.2 
  306500    302.87462    47.255864    460078.29   -145265.47    26632.043    24861.001    560207.31   -145291.32 
  306750    298.86982    166.16499     457790.2   -145408.81    26279.897    25123.672    559796.59   -145434.27 
  307000    300.13955   -70.689354    460147.47   -144944.11    26391.545    24570.637    560808.36   -144970.03 
  307250    298.86008    56.427753    460215.07   -144831.07    26279.041    24722.152    560764.32   -144859.35 
  307500    300.76323   -10.396108    460956.06   -144734.14    26446.386    24552.093    561023.47   -144761.66 
  307750    300.44543   -104.17211    459433.26   -145107.05    26418.442    24501.697    560713.78   -145142.72 
  308000    300.27902   -101.75089    460517.38    -144961.9    26403.809    24611.473    560745.25   -144992.84 
  308250    301.41776    183.93508    459961.53   -144810.99     26503.94    24991.489    560514.59   -144842.78 
  308500    300.59315   -167.00892    460378.89   -145005.35    26431.431    24407.859     560921.4   -145032.38 
  308750    298.82898   -41.796747    458735.85   -144831.98    26276.306    24507.288    560973.77   -144865.62 
  309000    302.11686   -126.05633       459564   -144757.69    26565.412    24366.828    561181.56   -144790.31 
  309250    298.36826    4.3326555    458905.06   -145087.11    26235.795    24804.866    560424.83   -145115.87 
  309500    301.86528    72.693832    459142.53   -145212.72     26543.29    24876.766    560221.39   -145247.17 
  309750     300.4915    -28.88428    458837.11   -145013.06    26422.492    24602.465    560711.19   -145045.32 
  310000    304.17544    84.643337    459160.54   -145046.72    26746.425    24868.942    560399.16   -145082.72 
  310250    299.75797   -40.777116     459121.7    -145057.8    26357.993    24564.261    560705.32   -145087.88 
  310500    300.67232    -71.63381    458107.54    -145201.7    26438.392     24460.96    560667.32   -145238.86 
  310750    301.18227   -41.804703    459991.57   -144774.47    26483.233    24506.851    561023.25   -144808.93 
  311000    299.33022   0.80883977    458746.56   -145009.92     26320.38    24615.323    560691.99    -145047.4 
  311250    299.99346    -31.16488    459627.49   -145054.82      26378.7    24633.622    560626.56   -145089.96 
  311500    301.61169    6.9444994    460378.83   -144898.66    26520.992    24703.434     560712.6   -144932.45 
  311750    299.05063    199.37914    460395.52   -144933.76    26295.796    25129.807    560246.07   -144967.17 
  312000    299.54977   -238.57414    462425.56    -144636.7    26339.686    24204.012    561488.35   -144673.71 
  312250    300.71683   -17.027421    459882.96   -145115.89    26442.307    24685.773    560519.92   -145148.23 
  312500    296.66751     19.52705    459435.45   -144717.26    26086.246    24595.542    561027.32   -144742.65 
  312750    297.13617    -87.47683    461327.75   -145095.74    26127.456    24655.953    560580.62   -145127.22 
  313000    299.80058    3.4647677    460251.59   -145058.44    26361.739    24736.122    560528.37   -145089.51 
  313250    302.09745   -154.74234    459739.79   -145265.14    26563.706     24442.59    560623.21      -145295 
  313500    300.66212    156.41855     458722.6   -145086.68    26437.496    24946.783    560313.07   -145113.59 
  313750    299.44845    6.3944499    460444.87   -145023.82    26330.776    24787.987    560524.82   -145049.71 
  314000    298.75943    59.185504    460394.61   -145097.22     26270.19     24917.13    560313.17   -145134.53 
  314250    302.67106    56.019174     459393.4   -144763.24    26614.144    24668.635    560899.56      -144802 
  314500    299.67079    61.733226    457178.25   -145062.79    26350.327    24613.795    560667.75    -145095.2 
  314750    302.64624   -14.685739    458689.32   -144774.65    26611.961    24503.516    561056.61   -144808.82 
  315000    297.62095   -92.329015    458756.14    -145092.1    26170.083     24533.11    560697.27   -145118.83 
  315250     301.8248   -131.33996    458475.53    -145272.9    26539.731     24459.66    560575.44   -145304.44 
  315500    301.13184   -1.9481446    460185.65   -144930.19    26478.798    24730.986    560653.75   -144957.42 
  315750     300.4045    122.13814     460418.5   -145036.05    26414.842    25039.192    560249.68   -145066.83 
  316000    299.11473   -8.1902028    461988.63   -144767.26    26301.432     24698.29    560856.02   -144796.07 
  316250    300.00569   -98.686287     459430.3      -145214    26379.775    24502.173    560606.13   -145243.73 
  316500    302.26082    27.784508    459983.01   -144541.54     26578.07    24588.074    561189.56   -144576.58 
  316750    301.10153   -0.4912745    460853.66   -145019.67    26476.133    24767.525    560538.71   -145049.66 
  317000    299.80804    227.57737    458290.08   -145618.13    26362.396    25345.582    559374.25   -145646.08 
  317250    300.03485   0.58701845    460366.24   -145052.65    26382.339    24800.423    560486.15   -145085.13 
  317500    301.75634    146.41555    459789.53    -144984.8    26533.711    25034.032    560297.78   -145008.34 
  317750    299.36381    6.6327381    459419.88      -144957    26323.334    24696.448    560672.58   -144987.09 
  318000    301.14246    69.950646    459780.67   -144776.66    26479.732    24658.135    560861.66   -144818.25 
  318250    299.28788   -47.250027    460179.92   -144736.19    26316.657    24525.405    561072.06   -144766.43 
  318500    302.32991    145.89708    460519.11   -144534.19    26584.146    24811.939    560982.52   -144563.87 
  318750     302.1862   -31.076184    459382.59   -145339.79     26571.51    24737.153    560266.99   -145363.22 
  319000    300.63421   -95.514006    459838.18   -144876.74    26435.041    24450.295    560987.13   -144903.23 
  319250     303.0311   -121.05441    461806.01   -144961.49    26645.802    24541.416    560808.64    -144993.6 
  319500    299.01796    -148.1138    461653.33   -145028.48    26292.923      24551.5    560733.91   -145056.91 
  319750    299.01008   -151.50396    461613.61   -145186.69     26292.23     24589.54     560543.1   -145214.33 
  320000    301.71046    216.24045    458414.12   -144926.51    26529.677    24982.678    560417.41    -144961.1 
  320250    300.61962    83.499438    459143.84   -144854.02    26433.759    24742.798    560738.02   -144880.73 
  320500    300.42532    75.238906    459649.91   -145071.34    26416.673    24850.481    560416.34   -145098.62 
  320750     298.6588   -159.19356    460446.07   -145049.11    26261.342    24474.309    560792.17   -145077.56 
  321000    300.94858   -45.856093    458696.43   -145005.33    26462.684    24576.288    560743.85   -145032.64 
  321250    298.80445   -61.961463    458607.61   -145391.28    26274.149    24618.079    560313.05   -145420.99 
  321500    300.03419   -99.361982    460187.86   -145163.05    26382.281    24526.151    560643.23   -145192.31 
  321750    301.33754   -86.653804    460369.37   -144931.99    26496.886    24488.231    560901.35   -144968.67 
  322000    298.19317    90.468927    460412.46   -144761.35    26220.398    24765.433    560783.09   -144795.08 
  322250    299.46525   -42.340611     461872.3   -144872.03    26332.254    24614.805    560823.79   -144901.94 
  322500    297.68053   -92.975403    460098.73   -145450.74    26175.322    24803.472    560081.42   -145476.71 
  322750    300.12269    51.363967    460575.26   -144979.35    26390.063    24834.439    560496.38   -145012.12 
  323000    300.85144    338.15477    460396.12   -145058.52    26454.142    25387.104    559882.24   -145088.64 
  323250    299.42965   -86.869487    460852.54   -144816.77    26329.124    24519.918    560978.58   -144845.92 
  323500    303.37357    224.92635    459161.48   -144938.87    26675.916     25073.88    560327.58   -144966.34 
  323750    298.30034    18.144735     459709.9   -145177.98    26229.822    24842.305    560306.42   -145208.66 
  324000    300.52077    58.228995    460141.88    -144762.1    26425.067    24723.022    560825.09   -144794.91 
  324250    302.95664    -61.28794    461029.61    -144860.4    26639.255    24573.234    560887.06   -144886.52 
  324500    299.67125    128.33194    460775.74   -144899.97    26350.367    25026.404     560383.3   -144936.03 
  324750    300.68181    153.01571    462004.39   -144898.13    26439.227    25131.534    560304.07   -144930.74 
  325000    300.31344   -29.722723    461354.47   -144961.83    26406.835    24737.755    560614.68   -144999.79 
  325250    298.53549     34.20304    459415.21   -145216.77    26250.499    24904.174    560193.67   -145248.05 
  325500    301.10595    8.0047644    459194.51   -144992.64    26476.522    24729.733    560597.14   -145024.54 
  325750    299.53914   -55.087185    459138.39   -145129.76    26338.751    24557.896    560645.69    -145156.6 
  326000    297.53198    38.366574    460912.52   -145049.85    26162.259    24869.665     560427.4   -145079.64 
  326250    299.86448   -220.15146    460750.81   -144988.62    26367.358    24386.971    560949.41   -145019.37 
  326500    297.87511    60.270477    459097.23   -144986.58    26192.431    24893.226    560418.49    -145017.7 
  326750    299.61949   -34.772847    460767.93   -145170.46    26345.816    24837.033     560307.3   -145201.51 
  327000     300.3439   -71.412969    458611.36   -145471.14    26409.514    24603.575    560278.87   -145494.58 
  327250    298.75114    28.399452    459778.75   -145057.77    26269.462    24797.012    560469.11   -145087.15 
  327500    301.36594   -133.95882    461259.55   -145182.53    26499.383    24596.504    560561.09   -145209.83 
  327750    300.85952   -153.49276    461419.11   -144965.48    26454.853    24419.607    560932.82   -144999.43 
  328000     301.1226    129.71912    461081.78   -144764.72    26477.986    24891.536    560694.11   -144789.01 
  328250    299.09391    29.960228    459112.93   -145156.16    26299.601    24846.818    560314.01   -145188.35 
  328500    298.38879   -89.800673    458725.16   -144979.96      26237.6    24476.814    560875.97   -145014.31 
  328750    299.98506    134.52158    459251.28   -144853.02    26377.961    24817.659    560653.18   -144884.98 
  329000     299.9517    13.816895    459810.89   -145024.58    26375.027    24701.038    560613.37   -145054.01 
  329250    300.54107     85.04923    459713.64   -145307.32    26426.851    24940.319    560084.04   -145336.51 
  329500    299.48013    56.900843    460310.36   -145120.44    26333.562    24894.567    560309.06    -145157.3 
  329750    300.03436   -28.834142    461381.99   -144939.35    26382.296    24664.205    560733.24   -144969.37 
  330000    299.28887    60.014475    461109.17   -144979.18    26316.744    24893.971    560428.49    -145013.8 
  330250    299.77897   -57.879376    462286.26   -145024.92    26359.839    24729.795    560574.78   -145055.32 
  330500    301.57399     -119.217    461724.95    -145126.8    26517.677    24605.863    560609.96   -145156.16 
  330750    298.72496     66.24237    459652.07   -145479.79    26267.159    25055.234    559797.48   -145512.45 
  331000    300.63574    56.345324    458497.52   -145014.71    26435.176    24763.207    560540.08   -145042.52 
  331250    300.92237    127.33267    458369.34   -145032.16    26460.379    24845.217    560472.06   -145055.82 
  331500    300.09497    141.44355    457806.83    -145226.5    26387.625    24994.864     560121.9   -145253.08 
  331750    299.38483    5.2663474    459373.28   -145303.31    26325.182    24785.757    560242.93    -145330.1 
  332000    301.17367     25.57883    460431.33   -144932.36    26482.477    24768.017    560624.18   -144958.45 
  332250    302.97024    125.09156    458856.98   -144823.41     26640.45    24804.561    560690.48   -144847.51 
  332500    300.76835   -160.96909    460354.22   -144968.35    26446.836    24379.849    560987.85   -144992.49 
  332750    299.97061    29.752173     459582.9   -145105.89     26376.69    24790.858    560409.84   -145134.95 
  333000    298.46141    150.37841    458550.55      -145192    26243.985    25001.045    560137.11   -145215.95 
  333250     302.1905    28.008187    461131.39   -144920.49    26571.887    24839.769    560575.68   -144953.75 
  333500    300.29023    76.259392    460872.84    -145403.2    26404.795    25126.325    559800.89   -145432.12 
  333750    298.05755   -3.2595553    460098.77   -144928.24    26208.474    24813.143    560595.72   -144957.33 
  334000    298.64927    43.639724    460009.67   -145040.36    26260.504     24854.65    560390.59    -145071.4 
  334250    302.07016   -74.856515     459634.2    -144869.8    26561.305    24440.651    561000.74   -144896.26 
  334500    298.20012    43.236456     458783.4   -144977.77     26221.01    24758.827    560604.53    -145006.1 
  334750    300.12432   -57.176501    460855.79   -144371.16    26390.206    24425.245    561517.25   -144399.85 
  335000     301.7926   -43.136818     461860.7   -144774.46      26536.9    24615.236    560958.81   -144803.63 
  335250    299.71233    136.15104    460446.76   -144609.19     26353.98    24804.291    560910.52   -144644.01 
  335500     298.7091   -55.219168    461435.78   -144564.23    26265.765    24454.788    561307.69   -144594.01 
  335750    300.27759    132.73446    462078.89   -144620.36    26403.684    24944.329    560738.11   -144650.24 
  336000    299.20709   -53.376013    462026.56   -144955.33    26309.553    24773.054    560586.56   -144982.57 
  336250    300.51837   -102.53089     461590.2   -145064.78    26424.856    24639.216    560610.17   -145093.72 
  336500    299.25017    5.7063204     461408.5   -144952.38    26313.341    24833.594     560536.9   -144985.84 
  336750      300.295    32.596368    460714.44   -145186.26    26405.214    24828.353    560310.15   -145213.22 
  337000     300.1784   -72.927875    459927.92   -145333.74    26394.962     24680.92     560325.9   -145355.79 
  337250    298.46074     -127.909    460185.67   -144970.82    26243.926    24405.231    560937.18   -145000.89 
  337500    298.25222   -50.729416       460934   -145135.83    26225.591     24753.68    560456.13   -145161.06 
  337750    298.60859    113.65757    458253.55   -144856.88    26256.927     24773.37    560702.92   -144890.65 
  338000    302.43279    54.405144    458858.35   -145104.89    26593.192    24751.176    560473.53    -145131.2 
  338250    298.66641   -190.17719    462413.25   -145127.07    26262.011    24504.693     560715.4    -145151.1 
  338500    299.09601   -160.23296    461406.37   -144966.68    26299.786     24492.61    560877.15   -144995.64 
  338750    300.67441    4.8425627    458464.66   -145053.29    26438.577    24564.518    560693.73   -145087.15 
  339000    299.64046   -107.12741     459909.4   -144677.24     26347.66    24349.751    561265.03   -144715.33 
  339250    298.64926   -119.93136    461319.26   -145145.47    26260.503    24571.055    560609.35   -145168.38 
  339500    300.25233    58.721497    459511.61   -145194.58    26401.462    24816.984     560319.2   -145219.01 
  339750    298.90225   -85.702597    460284.68   -144880.91    26282.748    24510.445    560934.94   -144913.52 
  340000    299.60022    23.972047     459280.3   -144989.91    26344.122    24685.384    560650.74   -145020.68 
  340250    302.34113    164.66045    458507.76   -145253.06    26585.132    25023.244    560061.49   -145281.81 
  340500    299.88697   -189.48978    460306.93   -145437.19    26369.335    24530.106    560357.89   -145463.33 
  340750    300.21495    15.536273    458595.19   -145050.93    26398.176     24625.19    560639.59   -145084.76 
  341000    297.74889   -142.04458     459620.4   -145200.57    26181.333    24539.197     560575.6   -145234.43 
  341250     300.0991   -230.62319    461048.41   -145032.46    26387.988    24436.014    560840.72   -145060.85 
  341500    300.32484   -11.899262    459505.41   -145373.67    26407.839    24796.857    560144.11   -145403.98 
  341750    299.34604    47.037889    459461.93   -145128.73    26321.772    24789.961    560405.89   -145157.37 
  342000    298.28556   -119.97129    459743.99    -145109.7    26228.523    24560.304    560666.82   -145142.66 
  342250    300.22113   -59.002351    461015.93   -144817.29    26398.719    24567.893    560929.75   -144849.97 
  342500    300.88626    93.071887    460404.17   -144811.59    26457.205    24785.722    560722.48   -144839.66 
  342750    298.96763    4.4998552    460836.41   -145048.47    26288.498    24816.574    560466.99   -145076.54 
  343000    299.42068   -176.07145    460921.19   -145079.81    26328.335    24461.868    560771.05   -145106.79 
  343250    297.35929    236.13323    458104.86    -144922.9    26147.075    25055.165    560355.79   -144948.55 
  343500    300.78945    9.5521092    458377.76   -145333.71    26448.692    24751.698     560251.4   -145361.12 
  343750    299.95256   -18.287845    460784.13   -144783.75    26375.103    24660.234    560888.29   -144817.83 
  344000    299.65682   -75.022555    459736.76   -145172.95    26349.099    24580.996    560567.26   -145201.73 
  344250    300.03015   -60.221827    460528.88   -145260.71    26381.925    24699.584    560353.47   -145291.57 
  344500    302.20682     18.38613       460287   -144772.48    26573.322    24685.873    560874.84   -144799.97 
  344750    300.76999   -19.428873     460460.1   -145209.04     26446.98    24741.094    560387.18   -145239.98 
  345000    300.67094   -115.71099    461347.18   -144811.62    26438.271    24419.165    561080.75   -144841.75 
  345250    300.80638   -28.389574    459458.97   -144654.48    26450.181    24500.914    561165.95   -144689.45 
  345500     297.6313   -125.46699     459978.4   -144582.34    26170.993    24304.176    561439.21   -144612.27 
  345750    299.11819     240.3306    459166.55   -144841.44    26301.736    25073.712    560406.17   -144873.88 
  346000    300.52836   -105.46359    461359.38   -144737.43    26425.734    24509.203    561077.41   -144767.14 
  346250    300.34863    52.880226    461140.58   -144874.07     26409.93     24780.44    560666.23   -144905.72 
  346500    300.66069   -156.17563    461007.81   -145294.75     26437.37    24563.326     560463.1   -145326.74 
  346750    299.85359    66.319713    459678.66   -145333.45      26366.4    24988.407     560001.6      -145368 
  347000    298.19868     30.18738    461272.04   -144876.08    26220.883    24749.316    560691.56   -144912.16 
  347250    298.99645    82.708673    461205.57   -144901.85    26291.031    24876.987    560540.05   -144926.06 
  347500    300.82979    125.29347    459015.36   -145203.08    26452.239    24942.697    560186.46   -145236.18 
  347750    301.30317    66.536196    458711.82   -145064.38    26493.864     24797.61    560456.21   -145096.97 
  348000    301.35353   -138.27017    460540.35   -144901.26    26498.292    24394.913    561016.58   -144936.26 
  348250    297.07342    127.92163    457920.88   -145330.87    26121.938     25001.49    560010.89   -145362.55 
  348500    298.02173   -215.16775    461876.62   -144697.36    26205.324    24327.406    561297.35   -144734.41 
  348750    298.92107   -67.834184    460151.93   -145144.02    26284.403    24594.481    560587.39   -145180.68 
  349000     299.5322   -85.343907    459521.59   -144938.74     26338.14    24416.364    560979.79   -144970.67 
  349250    299.08898    -89.91873    460145.14   -144872.45    26299.168    24475.412    560971.93   -144901.25 
  349500    299.16891    32.747468    459312.45   -144967.59    26306.196    24767.066    560575.67   -144998.24 
  349750    299.54193   -8.5818982    459469.86   -145461.69    26338.996    24874.038    559996.71   -145492.42 
  350000    298.30148    35.597087    459996.04   -145068.28    26229.922    24764.854    560477.16   -145099.53 
  350003    300.82983    -23.21799    459975.01   -145278.47    26452.243    24713.458    560326.16   -145312.35 
Loop time of 44872.8 on 1 procs (1 MPI x 1 OpenMP) for 100000 steps with 44200 atoms

Pair  time (%) = 32443 (72.2999)
Bond  time (%) = 1.02945 (0.00229416)
Kspce time (%) = 3580.71 (7.97968)
Neigh time (%) = 5862.32 (13.0643)
Comm  time (%) = 105.568 (0.235261)
Outpt time (%) = 1.7277 (0.00385021)
Other time (%) = 2878.46 (6.4147)

FFT time (% of Kspce) = 809.967 (22.6203)
FFT Gflps 3d (1d only) = 1.51917 2.9867

Nlocal:    44200 ave 44200 max 44200 min
Histogram: 1 0 0 0 0 0 0 0 0 0
Nghost:    69667 ave 69667 max 69667 min
Histogram: 1 0 0 0 0 0 0 0 0 0
Neighs:    1.46151e+07 ave 1.46151e+07 max 1.46151e+07 min
Histogram: 1 0 0 0 0 0 0 0 0 0

Total # of neighbors = 14615066
Ave neighs/atom = 330.658
Ave special neighs/atom = 2.00851
Neighbor list builds = 11374
Dangerous builds = 0
write_restart   confout-3.data
PPPM initialization ...
  G vector (1/distance) = 0.263217
  grid = 90 25 25
  stencil order = 5
  estimated absolute RMS force accuracy = 0.0402098
  estimated relative force accuracy = 0.000121091
  using double precision FFTs
  3d grid and FFT values/proc = 97280 56250
