LAMMPS (24 Apr 2013)
WARNING: OMP_NUM_THREADS environment is not set. (../comm.cpp:100)
  using 1 OpenMP thread(s) per MPI task
# LAMMPS 2005 MD Simulation Parameters - Generated by XenoView
# Structure file "C:\Users\laflij\Dropbox\Xenoview\34m.lmp"
# Source force field file pcff_d.frc

# Define units and force field
units		real
atom_style	full
boundary	p p p
kspace_style	pppm 0.0001

# Read system data
read_restart	confout-0.data
  orthogonal box = (-80.3498 -16.07 -16.07) to (80.3498 16.07 16.07)
  1 by 1 by 1 MPI processor grid
  12061 atoms
  8140 bonds
  4517 angles
  888 dihedrals
  397 impropers
  4 = max # of 1-2 neighbors
  6 = max # of 1-3 neighbors
  12 = max # of 1-4 neighbors
  16 = max # of special neighbors

# Write (hopefully folded) structure out
dump            icrd all custom 1 system-1.lammpstrj id mol type x y z ix iy iz
dump_modify     icrd sort id
run             1
WARNING: No fixes defined, atoms won't move (../verlet.cpp:54)
PPPM initialization ...
  G vector (1/distance) = 0.257846
  grid = 60 18 18
  stencil order = 5
  estimated absolute RMS force accuracy = 0.0340089
  estimated relative force accuracy = 0.000102417
  using double precision FFTs
  3d grid and FFT values/proc = 40625 19440
Memory usage per processor = 51.7001 Mbytes
Step Temp E_pair E_mol TotEng Press 
    5000    202.06608   -24045.975     418.3813   -16363.608    4447.4786 
    5001    202.06608   -24045.975     418.3813   -16363.608    4447.4786 
Loop time of 0.13174 on 1 procs (1 MPI x 1 OpenMP) for 1 steps with 12061 atoms

Pair  time (%) = 0.096977 (73.6125)
Bond  time (%) = 0.00237703 (1.80434)
Kspce time (%) = 0.00982499 (7.45787)
Neigh time (%) = 0 (0)
Comm  time (%) = 0.000247002 (0.187492)
Outpt time (%) = 0.0222309 (16.8748)
Other time (%) = 8.29697e-05 (0.0629799)

FFT time (% of Kspce) = 0.0024613 (25.0514)
FFT Gflps 3d (1d only) = 1.55992 2.30059

Nlocal:    12061 ave 12061 max 12061 min
Histogram: 1 0 0 0 0 0 0 0 0 0
Nghost:    28647 ave 28647 max 28647 min
Histogram: 1 0 0 0 0 0 0 0 0 0
Neighs:    3.19748e+06 ave 3.19748e+06 max 3.19748e+06 min
Histogram: 1 0 0 0 0 0 0 0 0 0

Total # of neighbors = 3197479
Ave neighs/atom = 265.109
Ave special neighs/atom = 2.24608
Neighbor list builds = 0
Dangerous builds = 0

# Reset the timestep
undump         	icrd

# Timestep and Neighbour searching
timestep	1.5
neighbor	2.0 bin
neigh_modify	every 1 delay 4 check yes


# Computes
#compute rdf all rdf 100 1 1 1 2 2 2
#compute msd all msd com yes

# Fixes
fix		1 all shake 0.0001 20 0 b 3 a 4
  0 = # of size 2 clusters
  0 = # of size 3 clusters
  0 = # of size 4 clusters
  3920 = # of frozen angles
fix		2 all npt temp 300.0 300.0 100.0 iso 1.0 1.0 100.0
#fix		 rdf all ave/time 1 500000 500000 c_rdf file rdf.xvg mode vector
#fix		 msd all ave/time 1 500000 500000 c_msd file msd.xvg mode vector

# Write out thermodynamic information
thermo_style    custom step temp press vol pe ke etotal
thermo	        250

# Write out trajectory
dump            cxtc all xtc 250 traj-1.xtc

# Write out velocity
#dump 		 1 all custom 1 vel_npt.txt vx vy vz

# Checkpoint files
restart         5000 state_cpt-*.data

# Final run command
run             100000
PPPM initialization ...
  G vector (1/distance) = 0.257846
  grid = 60 18 18
  stencil order = 5
  estimated absolute RMS force accuracy = 0.0340089
  estimated relative force accuracy = 0.000102417
  using double precision FFTs
  3d grid and FFT values/proc = 40625 19440
Memory usage per processor = 51.6482 Mbytes
Step Temp Press Volume PotEng KinEng TotEng 
    5001    299.37554     142.7954     165998.8   -23627.599    7263.9863   -16363.613 
    5250    300.71719    187.49612    166614.99   -23494.128    7296.5398   -16197.588 
    5500    297.89506   -4.1097342    165327.77   -23733.951    7228.0642   -16505.887 
    5750    296.36615   -49.171596    165742.45   -23559.693    7190.9671   -16368.726 
    6000    298.99292    127.43086    166140.15   -23524.242    7254.7025    -16269.54 
    6250    298.15287   -81.908748    165433.44   -23701.013    7234.3197   -16466.693 
    6500    299.02672    218.82571    165357.24   -23545.728    7255.5228   -16290.205 
    6750     294.7417   -34.439022    164356.39   -23575.075    7151.5518   -16423.523 
    7000    299.36419   -162.51287    164306.49   -23689.822    7263.7111   -16426.111 
    7250    303.20885    40.793452    164165.54   -23682.047    7356.9969    -16325.05 
    7500    302.37947   -153.08223    163975.42   -23573.744    7336.8731   -16236.871 
    7750    298.58858     173.3978    163570.12   -23692.429    7244.8916   -16447.538 
    8000    301.93724    50.606493    163111.24   -23708.861    7326.1429   -16382.718 
    8250    297.59472    157.95605    164052.08   -23571.033    7220.7769   -16350.256 
    8500     300.1902    38.673922    165035.19   -23424.283    7283.7532    -16140.53 
    8750    301.84756   -108.87571    165711.09   -23532.179    7323.9668   -16208.212 
    9000    299.81216   -119.56621    164656.84   -23673.283    7274.5804   -16398.703 
    9250      298.811    236.16006    164490.79   -23479.956    7250.2886   -16229.667 
    9500    297.91878   -57.880116    165097.94   -23564.636    7228.6399   -16335.996 
    9750    297.53451   -245.88136    165339.61   -23520.051    7219.3159   -16300.736 
   10000    297.61087   -183.72554    165083.47   -23525.015    7221.1687   -16303.846 
   10250    297.84679    18.051445    164212.05   -23606.879    7226.8931   -16379.986 
   10500    298.92567   -71.336526    164252.45   -23621.384    7253.0707   -16368.314 
   10750     298.2043   -273.88206    164122.23   -23584.102    7235.5678   -16348.534 
   11000    301.15135   -329.11706    163742.99   -23746.384    7307.0743   -16439.309 
   11250     298.2476    141.20931     163370.6   -23583.485    7236.6182   -16346.867 
   11500    298.39967   -205.18627     164752.6   -23663.755    7240.3082   -16423.447 
   11750    302.50509   -56.666135    164335.95   -23576.808    7339.9211   -16236.887 
   12000    301.45106    349.99641    162436.94   -23705.229    7314.3463   -16390.882 
   12250    301.10554    26.122079    164975.69   -23552.817    7305.9627   -16246.855 
   12500    303.93481   -164.51359    165848.12   -23405.599    7374.6115   -16030.988 
   12750    298.58164    94.489888    164730.22   -23546.225    7244.7234   -16301.501 
   13000    300.08782    -234.8187    164886.43   -23654.575     7281.269   -16373.306 
   13250    297.53754    63.350944    164538.97   -23631.275    7219.3894   -16411.885 
   13500    300.29191   -83.339505     164843.9   -23551.744    7286.2209   -16265.523 
   13750     300.8363   -199.56232    165919.48   -23549.171    7299.4299   -16249.741 
   14000    295.52749   -68.307103    166367.72   -23327.418     7170.618     -16156.8 
   14250    296.82123   -167.32346    165283.16    -23561.54    7202.0091   -16359.531 
   14500    300.58158    23.905416    165350.03   -23410.582    7293.2496   -16117.333 
   14750    297.10714    169.26678    164262.08   -23681.323    7208.9463   -16472.377 
   15000    301.27126    111.32111    165768.05   -23507.479    7309.9837   -16197.496 
   15250    293.92236    46.378576    164548.69   -23645.624    7131.6717   -16513.952 
   15500    301.69775    46.517893    165517.04   -23517.487     7320.332   -16197.155 
   15750    295.78994   -31.737412    165510.15   -23496.425    7176.9862   -16319.439 
   16000    296.77149    33.663616    164945.13   -23584.231    7200.8022   -16383.429 
   16250    305.20227    86.966421    164616.92   -23536.924    7405.3651   -16131.559 
   16500    303.49319   -62.916313    166219.95    -23542.22    7363.8963   -16178.324 
   16750    296.95211   -179.15599    165457.89   -23662.409    7205.1848   -16457.225 
   17000    292.69776    192.59265    165861.78   -23387.708     7101.958    -16285.75 
   17250    300.93864    77.715567    166276.78   -23518.112    7301.9131   -16216.199 
   17500     298.2556    41.883277    165864.08   -23614.055    7236.8123   -16377.243 
   17750    298.01542   -101.43043    166715.59   -23464.199    7230.9847   -16233.214 
   18000    296.99104    78.925677    167839.84   -23241.472    7206.1293   -16035.343 
   18250    295.67686   -21.963709    167163.16   -23411.612    7174.2424   -16237.369 
   18500    302.47689    90.218258    167366.15   -23279.074    7339.2369   -15939.838 
   18750    298.95547   -97.839259    164706.38   -23577.476     7253.794   -16323.682 
   19000    303.50113     148.2198    165266.05   -23509.866    7364.0888   -16145.778 
   19250    302.50731   -124.24835    166547.04   -23470.316    7339.9751   -16130.341 
   19500    299.61474     135.1132    166226.53   -23481.952    7269.7903   -16212.161 
   19750    301.14409    67.652543    166384.81    -23491.77    7306.8982   -16184.872 
   20000    295.44106    15.748448    166759.08   -23390.708    7168.5209   -16222.187 
   20250    297.99379   -144.44539    167299.13   -23390.997    7230.4598   -16160.537 
   20500     299.0048    6.3429529    166007.72   -23446.289    7254.9907   -16191.298 
   20750    298.83066   -63.941829    165872.39    -23525.69    7250.7655   -16274.925 
   21000    300.53239    109.22445    165005.62   -23609.279     7292.056   -16317.223 
   21250    298.41548    44.655036    165999.16   -23449.139    7240.6917   -16208.448 
   21500    294.69817   -54.112906    165191.96   -23621.409    7150.4956   -16470.913 
   21750    300.40834    176.92819    165482.97   -23512.362     7289.046   -16223.316 
   22000    300.48597    137.62143    166060.31   -23414.361    7290.9296   -16123.432 
   22250    300.15892    30.054902     166355.4   -23398.183    7282.9942   -16115.189 
   22500    301.04795   -79.008901    166996.89   -23451.706    7304.5654   -16147.141 
   22750    298.27352    66.812863    165867.71   -23580.043    7237.2471   -16342.796 
   23000    301.44326    103.87013    166359.82   -23433.696    7314.1572   -16119.539 
   23250    302.63921    17.010324    166465.19   -23494.067    7343.1755   -16150.892 
   23500    301.85976   -105.29498     168547.8   -23282.157     7324.263   -15957.894 
   23750     300.0152    46.624133    166933.11   -23413.384     7279.507   -16133.877 
   24000    294.38244    -84.07331    166769.33   -23395.938    7142.8349   -16253.104 
   24250    298.87377    274.27758    166143.41    -23477.12    7251.8116   -16225.309 
   24500    297.76584    52.354844    166447.96   -23462.322    7224.9289   -16237.393 
   24750    301.20558    106.05767    165961.92   -23389.711    7308.3901   -16081.321 
   25000    294.43548   -149.84306       167163   -23345.725    7144.1217   -16201.604 
   25250    298.85877     78.93376    167563.36   -23456.812    7251.4477   -16205.364 
   25500    300.87502   -114.60973    166445.38   -23413.073    7300.3694   -16112.704 
   25750    303.91031   -148.61348     166542.3   -23525.197    7374.0171    -16151.18 
   26000    301.59641    109.91786    167443.51    -23374.37    7317.8731   -16056.497 
   26250    302.21118    7.4789744    167431.29   -23408.549    7332.7898   -16075.759 
   26500    303.18084    238.49819     166657.3   -23356.439    7356.3173   -16000.122 
   26750    304.92057    60.309743    166393.94   -23500.424    7398.5299   -16101.894 
   27000    298.86274    103.92179    165169.34   -23637.365    7251.5438   -16385.821 
   27250    297.87057   -153.03484    167152.04   -23416.004    7227.4701   -16188.534 
   27500    298.51612   -2.7147625    166331.61   -23540.495    7243.1335   -16297.362 
   27750    300.72166   -343.90305    165888.72   -23527.718    7296.6483   -16231.069 
   28000    300.14744    32.792167    165836.07   -23431.079    7282.7155   -16148.364 
   28250    298.22251     21.34551    165435.25   -23557.805    7236.0095   -16321.796 
   28500    297.03157    100.48679    165362.58   -23447.078    7207.1127   -16239.965 
   28750    299.07627   -187.25439    166191.97   -23488.376    7256.7249   -16231.651 
   29000    301.49001    107.86217    167017.63   -23382.777    7315.2915   -16067.485 
   29250    299.81228    157.42771    166055.96   -23462.953    7274.5833    -16188.37 
   29500    296.76906    271.18675     166491.9   -23357.928    7200.7432   -16157.185 
   29750    294.93254    -190.0538     167956.9   -23277.763    7156.1822   -16121.581 
   30000    304.51362   -117.15852    168374.76   -23227.397    7388.6556   -15838.741 
   30250    298.73654    122.36085    165714.13   -23459.193    7248.4819   -16210.711 
   30500    298.58473   -21.834742    168256.59    -23220.73    7244.7983   -15975.932 
   30750    301.21978    31.248148    165822.29   -23498.712    7308.7346   -16189.977 
   31000    302.61102   -167.53759     166997.1    -23518.54    7342.4914   -16176.049 
   31250     305.0475   -82.159308    166553.68   -23424.434    7401.6097   -16022.824 
   31500    302.76959   -84.971019    166247.75   -23497.216    7346.3389   -16150.877 
   31750    295.03926    135.79259     166079.4   -23554.165    7158.7717   -16395.393 
   32000    300.84399    164.45752    167367.62   -23299.665    7299.6164   -16000.049 
   32250       298.33    17.087943    166059.98   -23445.572    7238.6175   -16206.955 
   32500    299.54078   -154.90425     167307.7   -23341.558    7267.9958   -16073.562 
   32750    299.86587    69.239081    166633.16   -23427.303    7275.8836    -16151.42 
   33000    300.45734    -125.9347    167548.25   -23319.941    7290.2349   -16029.706 
   33250     304.1961    208.57407    166711.07   -23508.533    7380.9514   -16127.581 
   33500    300.84436   -131.92507    167849.16   -23449.025    7299.6256   -16149.399 
   33750    302.68795   -9.7502399    167475.86   -23363.727    7344.3581   -16019.369 
   34000     300.3953   -158.09931     168334.4   -23457.322    7288.7296   -16168.592 
   34250     299.4614   -56.666143    167606.43   -23301.814    7266.0697   -16035.744 
   34500    300.97773    129.85327    165286.04   -23506.443    7302.8616   -16203.582 
   34750    298.73994    68.353305    166185.12    -23461.62    7248.5644   -16213.056 
   35000    306.70902    73.046867    165947.61   -23560.822    7441.9244   -16118.898 
   35250    299.93368   -84.532244    167404.51   -23314.716     7277.529   -16037.187 
   35500    301.20038    112.37178    166397.81   -23438.913    7308.2638   -16130.649 
   35750    297.39589     257.5224    166982.28   -23368.952    7215.9524       -16153 
   36000    300.68841   -214.54111    168376.77   -23367.276    7295.8416   -16071.435 
   36250    298.62576   -19.786443    167948.24    -23392.97    7245.7938   -16147.176 
   36500    295.53882   -340.58559     167979.7   -23439.678     7170.893   -16268.785 
   36750    300.66445   -61.961007    166567.18   -23514.079    7295.2602   -16218.818 
   37000    301.71459   -2.1669445     167553.6   -23384.201    7320.7406   -16063.461 
   37250    298.17796   -109.52656    168452.04    -23318.76    7234.9286   -16083.832 
   37500    302.56243     53.52789    167404.27   -23387.774    7341.3125   -16046.461 
   37750    298.71989    155.89607     166439.4   -23470.498    7248.0778    -16222.42 
   38000    296.90458    9.4666453     168670.9   -23293.048    7204.0316   -16089.017 
   38250    299.20867    112.98591    166690.73   -23367.473    7259.9375   -16107.536 
   38500    303.63526   -127.20488    168556.45   -23322.649    7367.3434   -15955.305 
   38750    301.57832    8.1512482    167558.73   -23379.115    7317.4341   -16061.681 
   39000    297.51494   -81.809301    167851.03   -23465.793    7218.8411   -16246.952 
   39250    306.51845   -90.575971     166784.8   -23467.916    7437.3005   -16030.616 
   39500    300.35518    49.436603    165318.09   -23463.356     7287.756     -16175.6 
   39750    297.71375     7.900656    166390.74   -23466.614    7223.6651   -16242.948 
   40000    307.02777   -60.397539    166673.57   -23450.928    7449.6584   -16001.269 
   40250    302.78074   -10.010217    166347.39   -23563.133    7346.6095   -16216.524 
   40500    302.38923   -166.68153    167347.35   -23367.511      7337.11   -16030.401 
   40750    301.05276    168.50609    165863.83   -23441.048    7304.6821   -16136.365 
   41000    299.51347    79.845729    166999.07   -23395.519    7267.3332   -16128.186 
   41250    302.03742     46.36978    167971.99   -23270.499    7328.5736   -15941.925 
   41500    297.68797   -24.749194    167590.87   -23385.599    7223.0394    -16162.56 
   41750    298.66868   -7.2670373    167533.38   -23286.319    7246.8353   -16039.484 
   42000     299.4222    41.684831    166094.27   -23472.064    7265.1185   -16206.946 
   42250     297.9026    178.30273    166287.29   -23383.068    7228.2473   -16154.821 
   42500    305.27934    40.869147     167394.5   -23383.747    7407.2349   -15976.512 
   42750     301.7952     -152.469    166282.34   -23496.068    7322.6965   -16173.371 
   43000     303.4729    35.656733    167445.01   -23298.369    7363.4038   -15934.965 
   43250    299.30365   -47.968643    167072.38   -23514.342    7262.2421   -16252.099 
   43500    301.61753   -35.405178    167253.14   -23492.449    7318.3856   -16174.063 
   43750    300.17529    39.777375    167122.49   -23270.912    7283.3915    -15987.52 
   44000    300.86459    234.87931    166127.09   -23549.873    7300.1163   -16249.756 
   44250    302.62367   -279.16878    167460.67   -23420.198    7342.7984     -16077.4 
   44500    294.69793    20.166982    166677.99   -23439.272    7150.4897   -16288.782 
   44750     300.8058    4.0259637    166248.76   -23509.522    7298.6898   -16210.832 
   45000    300.18619    -120.2909    168157.42   -23309.192    7283.6557   -16025.536 
   45250    297.24108    8.4963566    166716.16   -23473.602    7212.1962   -16261.406 
   45500       297.43   -23.989794    168144.41    -23275.33    7216.7802   -16058.549 
   45750    303.60563    99.989298    167598.53   -23238.669    7366.6245   -15872.044 
   46000    302.20409    139.10361     167970.3   -23344.999    7332.6177   -16012.381 
   46250    295.60165    164.40424    167594.48    -23358.26    7172.4175   -16185.842 
   46500    302.90818    36.595621    167293.81   -23413.029    7349.7017   -16063.327 
   46750     297.3238   -115.48481    168060.02   -23386.957    7214.2033   -16172.754 
   47000    298.80598   -108.10147    167966.35   -23320.769    7250.1666   -16070.602 
   47250    296.21513   -189.02251     167091.6   -23433.655    7187.3029   -16246.352 
   47500    300.86938   -5.4855807    166472.52   -23536.706    7300.2327   -16236.474 
   47750    301.60941   -83.642427    168602.29   -23305.916    7318.1886   -15987.727 
   48000    299.50765    27.512438    167553.77   -23366.488    7267.1919   -16099.296 
   48250    300.64822   -176.94391    167926.69   -23390.846    7294.8664   -16095.979 
   48500    303.22284    108.15078    167708.03   -23404.591    7357.3365   -16047.255 
   48750    298.37164   -32.980292    166844.07    -23466.67     7239.628   -16227.042 
   49000    296.39665    107.28248    168800.28     -23173.2    7191.7071   -15981.492 
   49250    297.55951    -37.74931    168535.94   -23317.261    7219.9226   -16097.338 
   49500    300.46307     -107.577    168042.41   -23349.069    7290.3741   -16058.695 
   49750    303.47997    -38.75757    168845.22   -23317.777    7363.5753   -15954.202 
   50000    300.17266   -206.28917    168744.49    -23288.61    7283.3275   -16005.282 
   50250    299.72642   -95.924005    167566.26   -23439.592    7272.5001   -16167.092 
   50500    303.00005   -58.851307    167520.58   -23316.694    7351.9307   -15964.763 
   50750    298.05044    191.13027    168353.32   -23355.642    7231.8345   -16123.807 
   51000    299.13649   -5.4500522    167074.73   -23399.697     7258.186   -16141.511 
   51250    299.05969   -117.19349    167747.88   -23397.221    7256.3226   -16140.898 
   51500     301.5164   -91.072156    167475.06   -23346.055    7315.9319   -16030.123 
   51750    301.35494    105.52436    166911.89    -23484.13    7312.0141   -16172.116 
   52000    295.50075   -27.623006    168394.73   -23370.951    7169.9692   -16200.982 
   52250    301.17914    52.279651    167968.54   -23410.057    7307.7485   -16102.309 
   52500    299.86958    30.590362    167901.86   -23457.173    7275.9736   -16181.199 
   52750    304.23789    123.31416    166188.92    -23531.53    7381.9654   -16149.564 
   53000    299.16105    145.29699    167088.39   -23509.296     7258.782   -16250.514 
   53250    298.03316   -54.051947    167071.21   -23454.792    7231.4152   -16223.377 
   53500    299.18126    10.094144    167472.41   -23441.081    7259.2724   -16181.808 
   53750    299.30632    221.77327     167137.6   -23352.793    7262.3068   -16090.486 
   54000    303.10447    239.15119    167306.85   -23379.435    7354.4643   -16024.971 
   54250    298.50442   -69.673903    168599.62   -23351.625    7242.8498   -16108.775 
   54500    301.15455   -100.31515    168641.28   -23289.174    7307.1518   -15982.022 
   54750    300.52932    -55.92316    166802.39   -23427.129    7291.9814   -16135.147 
   55000    296.79038   -94.599438    167262.69   -23463.735    7201.2605   -16262.475 
   55250    298.45475   -121.10807    168793.52   -23235.203    7241.6446   -15993.558 
   55500    297.45554    89.566823    166574.23   -23465.426    7217.3999   -16248.026 
   55750    300.90548    110.89955    167734.67   -23317.258    7301.1086   -16016.149 
   56000    302.38963   -77.759278    167153.66   -23490.255    7337.1197   -16153.135 
   56250    298.57903    45.196067    167827.81   -23335.725      7244.66   -16091.065 
   56500    301.28021    69.465053    166101.96   -23476.341    7310.2009    -16166.14 
   56750    299.48796    248.54623    165500.04   -23657.602    7266.7141   -16390.888 
   57000    303.41345   -177.13279    167470.93   -23465.049    7361.9614   -16103.087 
   57250     298.8214    106.97633    165392.77   -23503.715    7250.5409   -16253.174 
   57500     299.0835    95.382081    167191.75   -23368.369    7256.9005   -16111.469 
   57750    300.20953    13.630472    168064.21   -23192.553    7284.2222   -15908.331 
   58000    299.05913    -118.1809    166943.97   -23401.767    7256.3091   -16145.458 
   58250     297.7689   -9.6024965    166506.62   -23479.028    7225.0032   -16254.025 
   58500    299.02296   -12.768227    167508.44   -23454.348    7255.4316   -16198.916 
   58750    300.57573   -87.904746    167466.48   -23379.007    7293.1075   -16085.899 
   59000    297.45816    -139.2137    167183.39   -23390.483    7217.4634   -16173.019 
   59250    306.06924   -15.159778    166934.83   -23371.563    7426.4008   -15945.162 
   59500    297.31779   -138.45917     167082.3   -23474.049    7214.0575   -16259.992 
   59750    301.81088    74.093422    166884.38   -23411.231    7323.0769   -16088.154 
   60000    302.95233   -41.716991     167176.5   -23478.603     7350.773    -16127.83 
   60250    299.01305    127.60891    166524.14   -23344.899     7255.191   -16089.708 
   60500    297.03009    -7.019954    166941.05   -23521.613    7207.0769   -16314.537 
   60750    302.64138   -171.77664    168504.65   -23401.235    7343.2281   -16058.007 
   61000    299.13203    156.09881    166816.09   -23434.157    7258.0778   -16176.079 
   61250     299.5017    28.354396    168045.16   -23224.838    7267.0474   -15957.791 
   61500    296.59085    208.32474    166252.79   -23460.231    7196.4193   -16263.811 
   61750    297.82147   -139.92874    167822.96   -23358.946    7226.2788   -16132.667 
   62000    301.61773    161.87223     166604.3   -23474.119    7318.3904   -16155.729 
   62250    297.66168    85.194363    165834.08   -23633.494    7222.4017   -16411.092 
   62500    302.47424    260.57244     166334.1   -23442.064    7339.1727   -16102.891 
   62750    300.35569   -92.774218    167574.33   -23494.993    7287.7686   -16207.224 
   63000    298.61409   -116.91557       167901   -23364.382    7245.5107   -16118.871 
   63250    301.42707   -37.875211    166614.23   -23466.843    7313.7644   -16153.079 
   63500    293.60182   -134.44212    168118.58    -23272.85    7123.8941   -16148.956 
   63750    297.90644   -10.434824    168302.14   -23178.836    7228.3405   -15950.495 
   64000    296.45335    129.24301    167889.76   -23266.309    7193.0829   -16073.226 
   64250    299.18452    129.39606    168439.96   -23337.182    7259.3514    -16077.83 
   64500    300.80301   -277.70703    168805.26   -23355.117    7298.6223   -16056.495 
   64750    291.17072   -249.65193    168264.82   -23427.275    7064.9062   -16362.368 
   65000    297.28443    45.057102    166511.66   -23433.875     7213.248   -16220.627 
   65250    298.33825   -253.04475    169040.67   -23245.479    7238.8179   -16006.661 
   65500    305.73079   -44.207471    167821.61   -23437.389    7418.1888     -16019.2 
   65750     296.8659   -30.760852    167408.66    -23373.69    7203.0931   -16170.597 
   66000    296.58201   -152.72272    167730.84    -23389.92    7196.2046   -16193.715 
   66250    299.43958   -169.20395    168381.47   -23351.756    7265.5403   -16086.215 
   66500     297.0493    97.180745    166505.03   -23496.611    7207.5429   -16289.068 
   66750    302.90501   -74.736877     167781.1   -23434.367    7349.6246   -16084.743 
   67000    294.61013    140.21486    167250.33     -23359.7    7148.3595   -16211.341 
   67250    302.10702    122.83939    167678.17   -23340.153    7330.2623   -16009.891 
   67500    300.04561    8.1261231    168025.65   -23293.345    7280.2447   -16013.101 
   67750    295.20325   -70.905529    167456.61   -23323.695    7162.7508   -16160.944 
   68000    306.44793    122.44844    167235.11   -23405.772    7435.5894   -15970.183 
   68250    296.80566    213.41873    167005.09   -23425.287    7201.6312   -16223.656 
   68500    298.65618   -46.274592    167558.59   -23390.628     7246.532   -16144.096 
   68750    299.52886   -64.096711    167893.99   -23328.156    7267.7065   -16060.449 
   69000    300.24016   -27.097353    167306.06   -23442.854    7284.9652   -16157.889 
   69250    294.80206    125.32364    167010.13   -23473.619    7153.0165   -16320.602 
   69500    301.36696    13.320414    166863.95   -23368.837    7312.3057   -16056.531 
   69750    306.09594    -69.76283    168381.61   -23337.548    7427.0487   -15910.499 
   70000    301.48305    79.117985    166891.71   -23414.002    7315.1225   -16098.879 
   70250     301.3451   -20.103897    166496.72   -23516.495    7311.7755   -16204.719 
   70500    299.51641    90.828761    167499.76   -23230.069    7267.4045   -15962.664 
   70750    299.04973   -225.73048    168042.05   -23432.886     7256.081   -16176.805 
   71000    300.39457   -145.82394    168255.47   -23355.698    7288.7119   -16066.986 
   71250    299.60423    61.859426    167531.85   -23480.833    7269.5352   -16211.297 
   71500    302.94068     56.36925    168134.23   -23294.662    7350.4901   -15944.172 
   71750    299.65447    116.27843    167331.18   -23367.491    7270.7542   -16096.737 
   72000    293.94428    106.59518    167629.33   -23334.495    7132.2033   -16202.291 
   72250    301.81934    22.999914    168074.76   -23372.183    7323.2822   -16048.901 
   72500    298.88559    3.4930578    167827.81   -23473.387    7252.0984   -16221.289 
   72750    301.24329    218.40282    166871.57   -23368.434    7309.3052   -16059.129 
   73000    302.20944    147.45225    165167.35   -23613.919    7332.7475   -16281.171 
   73250    304.63791   -14.024447    166253.02   -23580.049    7391.6716   -16188.378 
   73500     299.4989    90.837363    168416.77   -23292.034    7266.9796   -16025.054 
   73750    297.38811    10.185561    168524.54   -23362.663    7215.7638   -16146.899 
   74000    302.00497   -102.91852    167870.43   -23393.934    7327.7863   -16066.147 
   74250    301.48164    119.09033    166943.07   -23423.757    7315.0884   -16108.669 
   74500    305.10908    48.612522    168421.21   -23331.095    7403.1039   -15927.991 
   74750    299.36537   -31.544133    168597.37   -23347.831    7263.7396   -16084.092 
   75000    297.43363   -71.070497    167792.25   -23417.787    7216.8683   -16200.919 
   75250    294.58872    -150.7338    167382.74   -23480.315      7147.84   -16332.475 
   75500    302.96691    184.18026    167252.13   -23441.681    7351.1267   -16090.554 
   75750    299.67353    80.794808    167674.83   -23322.039    7271.2167   -16050.822 
   76000    299.00525    84.601034    167611.55   -23424.546    7255.0018   -16169.545 
   76250    300.05887    -183.8822    169254.03   -23257.053    7280.5666   -15976.486 
   76500    296.79024    2.8574622    166977.22   -23383.103    7201.2573   -16181.846 
   76750    296.86922    113.21061    167332.21   -23359.351    7203.1736   -16156.177 
   77000    303.54256    141.48131    167401.36   -23476.495    7365.0941   -16111.401 
   77250    298.42546    55.782128     166224.1   -23454.157    7240.9338   -16213.224 
   77500    299.30613   -80.847459    166735.88   -23426.372    7262.3023    -16164.07 
   77750    299.84913   -38.746473    168643.73   -23265.407    7275.4774    -15989.93 
   78000    296.95545   -168.32387    168754.39   -23339.261    7205.2658   -16133.995 
   78250     301.9918    -28.88875    168925.18    -23185.67    7327.4668   -15858.203 
   78500    303.14538   -5.1299764    167745.39   -23432.576     7355.457   -16077.119 
   78750    300.75823   -313.50733    170609.02   -23146.593    7297.5358   -15849.057 
   79000    299.06522   -137.56715       168985   -23328.766    7256.4569    -16072.31 
   79250    297.16904   -95.813667    168503.43   -23436.418    7210.4482    -16225.97 
   79500    300.21307    -94.59843     169275.9   -23196.092     7284.308   -15911.784 
   79750    299.25097    127.14112    166924.91   -23391.155    7260.9639   -16130.191 
   80000    298.54354   -69.951729    167636.49   -23522.136    7243.7989   -16278.337 
   80250    299.24731    72.300749    168042.34     -23260.7    7260.8751   -15999.825 
   80500    301.29636   -158.78124     168378.2    -23404.87    7310.5928   -16094.278 
   80750    301.93567    17.515278    168058.22   -23319.587    7326.1048   -15993.482 
   81000    298.68391   -14.918331    167761.26   -23334.743    7247.2049   -16087.538 
   81250    300.27867    72.457741    167361.08   -23338.261    7285.8996   -16052.362 
   81500    299.87587    51.569805    168001.96   -23376.032    7276.1263   -16099.906 
   81750     301.3771   -64.487238    167705.23   -23341.426    7312.5518   -16028.874 
   82000    305.85777   -37.086602    168584.94       -23357    7421.2699    -15935.73 
   82250    300.36474    32.646491    167811.48   -23392.113    7287.9881   -16104.125 
   82500    301.47228   -127.27608    166950.96   -23443.109    7314.8613   -16128.248 
   82750    296.55539   -29.892603     167629.2   -23396.447    7195.5588   -16200.888 
   83000    304.36395   -79.398629       167130   -23468.707    7385.0242   -16083.683 
   83250    299.02231    56.320743    166971.07   -23388.641    7255.4158   -16133.225 
   83500    296.39778   -56.379329    166938.25   -23539.476    7191.7345   -16347.741 
   83750     297.9682   -80.462064    167357.48   -23414.652    7229.8389   -16184.813 
   84000    305.80116   -22.919076    167648.07   -23456.712    7419.8962   -16036.816 
   84250    302.82348   -166.92498    168705.94   -23245.072    7347.6464   -15897.425 
   84500    298.22779    121.86371    167134.54   -23383.963    7236.1376   -16147.825 
   84750    296.97859     65.31376    168002.29   -23309.437    7205.8272   -16103.609 
   85000    300.09462    45.219992    167311.77   -23398.521    7281.4339   -16117.088 
   85250    296.25705     42.95493    168155.45   -23274.448    7188.3199   -16086.128 
   85500    299.95331    6.6995585    167063.65   -23376.251    7278.0053   -16098.246 
   85750    300.41609   -129.80126    167121.13   -23490.511    7289.2342   -16201.277 
   86000    299.85433    23.814569    167415.07    -23400.25    7275.6037   -16124.647 
   86250    299.66934   -131.39317    167728.43   -23319.334    7271.1151   -16048.218 
   86500    296.86774    54.475053    168486.32    -23273.34    7203.1375   -16070.202 
   86750    300.26049   -75.895158    168367.03    -23339.07    7285.4585   -16053.611 
   87000    299.48971   -124.44849    168926.14   -23199.467    7266.7566   -15932.711 
   87250    300.92219    19.321175    167936.35   -23454.294     7301.514    -16152.78 
   87500    303.98201    170.51093    166766.26   -23417.586    7375.7567   -16041.829 
   87750     301.6141    90.345293    167018.72   -23349.741    7318.3022   -16031.439 
   88000     297.4562    12.904585    167493.53   -23405.069    7217.4158   -16187.653 
   88250    296.77188   -46.399012    168083.88   -23238.364    7200.8117   -16037.552 
   88500    299.90522   -318.42698    169125.84   -23344.571    7276.8384   -16067.733 
   88750    295.65125    17.717456    166741.62   -23415.782    7173.6211   -16242.161 
   89000    303.22695   -13.529662    166995.19   -23372.486    7357.4362   -16015.049 
   89250    298.01127    115.61993    166341.02   -23442.135    7230.8841   -16211.251 
   89500    299.41211   -229.84931    167944.82   -23319.509    7264.8736   -16054.635 
   89750    295.90044    100.90472    165894.99   -23526.643    7179.6673   -16346.976 
   90000    302.43825   -90.060493    168383.52   -23378.052    7338.2993   -16039.753 
   90250     297.5449    177.84617    166396.84   -23489.916    7219.5681   -16270.348 
   90500    303.09955   -134.90702    168010.29   -23341.011    7354.3449   -15986.666 
   90750    300.65951    33.327162    167244.16   -23529.326    7295.1404   -16234.186 
   91000      301.561   -142.48245    168319.98   -23317.785     7317.014   -16000.771 
   91250      294.234   -251.89488    167440.64   -23461.412    7139.2332   -16322.179 
   91500     303.5702    49.518399    167131.39   -23359.649    7365.7646   -15993.884 
   91750    304.17369    13.358948    166019.39   -23590.069    7380.4077   -16209.662 
   92000    297.00786   -196.35822    167134.41   -23510.751    7206.5374   -16304.214 
   92250    299.48665    34.934038    166108.03   -23573.897    7266.6823   -16307.215 
   92500     301.9637    95.006855     166515.7   -23453.138     7326.785   -16126.352 
   92750    301.12405    51.885258    167911.37   -23340.354    7306.4119   -16033.942 
   93000    296.94639   -294.98625    168379.88   -23331.456     7205.046    -16126.41 
   93250    300.81973   -144.37006    169345.89   -23174.881    7299.0279   -15875.853 
   93500    296.22206   -217.45692    168374.16    -23370.37     7187.471   -16182.899 
   93750    299.84989   -59.997689    167976.42   -23423.733    7275.4958   -16148.237 
   94000    297.90884    -163.9962    168965.25   -23248.629    7228.3987    -16020.23 
   94250      300.424    97.170286    168137.99   -23197.572     7289.426   -15908.146 
   94500    303.97842    156.26566    167249.07   -23466.385    7375.6696   -16090.715 
   94750    300.28048   -52.278868    168504.89   -23239.855    7285.9438   -15953.911 
   95000    298.49741   -146.44934    167628.74   -23397.761    7242.6797   -16155.082 
   95250    305.47088   -107.64697    167344.58   -23465.903    7411.8826    -16054.02 
   95500    304.98132   -60.744115    166173.19   -23489.219    7400.0038   -16089.215 
   95750    299.16846    44.762495    167727.49   -23359.263    7258.9617   -16100.302 
   96000    306.94329    145.70192    167403.48   -23473.443    7447.6086   -16025.834 
   96250    297.69871    245.17083    165867.39   -23453.552    7223.3001   -16230.252 
   96500    301.54489   -40.322864    168587.13   -23373.346    7316.6231   -16056.723 
   96750    299.85381   -22.532039       168119   -23376.811    7275.5911   -16101.219 
   97000    300.55904   -116.14653    168141.39   -23420.115    7292.7026   -16127.412 
   97250    298.19606   -85.122587    168834.52   -23247.643    7235.3677   -16012.275 
   97500    298.89266    12.950906    167472.79   -23368.536    7252.2698   -16116.266 
   97750    305.76413   -71.782138    168149.11   -23323.953    7418.9979   -15904.955 
   98000    298.53663    55.672575    167965.93   -23314.129    7243.6312   -16070.498 
   98250    300.12556   -22.859696    168662.54   -23174.341    7282.1846   -15892.157 
   98500    300.51312    127.06228    168326.03   -23303.318    7291.5884    -16011.73 
   98750     301.0862    157.28801    166990.33   -23438.966    7305.4935   -16133.473 
   99000    298.45408    127.97147    166997.33   -23413.975    7241.6282   -16172.347 
   99250    298.79379    141.32581    166442.42   -23502.655    7249.8709   -16252.784 
   99500     297.3726     2.302583    167788.92   -23392.331    7215.3875   -16176.944 
   99750    301.27949    92.256784    167923.15   -23272.624    7310.1834   -15962.441 
  100000    302.02358    130.86704    166537.17   -23455.232     7328.238   -16126.994 
  100250    297.20866    152.02105    166551.53   -23554.196    7211.4098   -16342.786 
  100500    299.58045    47.396634    166218.65   -23483.431    7268.9582   -16214.472 
  100750    298.09874   -58.956476    166571.28   -23478.168    7233.0063   -16245.162 
  101000    302.83864    203.21079     165983.6   -23527.312    7348.0144   -16179.298 
  101250     305.5784    4.0484396    165998.11   -23495.265    7414.4914   -16080.774 
  101500    300.99661   -70.918089    167050.67   -23454.894    7303.3196   -16151.575 
  101750    296.00313    -18.83372    168289.11   -23261.279    7182.1589   -16079.121 
  102000    296.70086    86.595815     168020.9   -23321.143    7199.0884   -16122.055 
  102250    298.59587     2.023471    168351.73   -23273.068    7245.0687   -16027.999 
  102500    301.51932    54.570968     168141.6   -23359.166    7316.0025   -16043.163 
  102750    300.82037    144.32769    167239.19   -23488.744    7299.0435   -16189.701 
  103000    304.66198   -55.790017    166981.64   -23464.896    7392.2556   -16072.641 
  103250    300.47454    221.54795    165565.16   -23632.448    7290.6522   -16341.795 
  103500    299.72583   -114.63769    166868.19   -23430.295    7272.4858   -16157.809 
  103750    303.03041    91.278789    164799.45   -23674.886    7352.6675   -16322.218 
  104000    296.68365    36.227197    167336.24   -23347.872    7198.6708   -16149.201 
  104250    295.90551   -123.59185    167760.31   -23374.372    7179.7902   -16194.582 
  104500    301.45601    55.098173    168528.58   -23295.394    7314.4665   -15980.928 
  104750    301.74262   -166.87649    169466.98   -23191.705    7321.4207   -15870.284 
  105000    300.23156    28.901886    166917.56   -23410.606    7284.7566   -16125.849 
  105001    300.40949    57.209538    166928.03   -23412.591    7289.0739   -16123.517 
Loop time of 10377.3 on 1 procs (1 MPI x 1 OpenMP) for 100000 steps with 12061 atoms

Pair  time (%) = 7279.94 (70.1524)
Bond  time (%) = 119.917 (1.15557)
Kspce time (%) = 1006.58 (9.69981)
Neigh time (%) = 1021.84 (9.84686)
Comm  time (%) = 35.713 (0.344145)
Outpt time (%) = 0.511891 (0.00493279)
Other time (%) = 912.818 (8.79628)

FFT time (% of Kspce) = 246.033 (24.4424)
FFT Gflps 3d (1d only) = 1.56054 2.30651

Nlocal:    12061 ave 12061 max 12061 min
Histogram: 1 0 0 0 0 0 0 0 0 0
Nghost:    30245 ave 30245 max 30245 min
Histogram: 1 0 0 0 0 0 0 0 0 0
Neighs:    3.14792e+06 ave 3.14792e+06 max 3.14792e+06 min
Histogram: 1 0 0 0 0 0 0 0 0 0

Total # of neighbors = 3147923
Ave neighs/atom = 261
Ave special neighs/atom = 2.24608
Neighbor list builds = 8934
Dangerous builds = 0
write_restart   confout-1.data
PPPM initialization ...
  G vector (1/distance) = 0.257682
  grid = 60 18 18
  stencil order = 5
  estimated absolute RMS force accuracy = 0.0342026
  estimated relative force accuracy = 0.000103
  using double precision FFTs
  3d grid and FFT values/proc = 40625 19440
