LAMMPS 2005 Description - Generated by XenoView

       10337  atoms
        6992  bonds
        3950  angles
         900  dihedrals
         404  impropers

           4  atom types
           3  bond types
           4  angle types
           3  dihedral types
           3  improper types

  -75.0000000000   75.0000000000 xlo xhi
  -20.0000000000   20.0000000000 ylo yhi
  -20.0000000000   20.0000000000 zlo zhi

Masses

  1   1.007970  hc  
  2  12.011150  c   
  3  15.999400  oh  
  4   1.007970  ho  

Pair Coeffs

  1   0.0200000000   2.9950000000
  2   0.0540000000   4.0100000000
  3   0.2400000000   3.5350000000
  4   0.0130000000   1.0980000000

Bond Coeffs

  1      1.1010    345.0000   -691.8900    844.6000
  2      1.5300    299.6700   -501.7700    679.8100
  3      0.9650    532.5062  -1282.9050   2004.7658

Angle Coeffs

  1    107.6600     39.6410    -12.9210     -2.4318
  2    110.7700     41.4530    -10.6040      5.1290
  3    112.6700     39.5160     -7.4430     -9.5583
  4    109.0000     58.5000      0.0000      0.0000

Dihedral Coeffs

  1    -0.1432     0.0000     0.0617     0.0000    -0.1083     0.0000
  2     0.0000     0.0000     0.0316     0.0000    -0.1681     0.0000
  3     0.0000     0.0000     0.0514     0.0000    -0.1430     0.0000

Improper Coeffs

  1      0.0000      0.0000
  2      0.0000      0.0000
  3      0.0000      0.0000

BondBond Coeffs

  1      5.3316      1.1010      1.1010
  2      3.3872      1.1010      1.5300
  3      0.0000      1.5300      1.5300
  4      0.0000      0.9650      0.9650

BondAngle Coeffs

  1     18.1030     18.1030      1.1010      1.1010
  2     11.4210     20.7540      1.1010      1.5300
  3      8.0160      8.0160      1.5300      1.5300
  4      0.0000      0.0000      0.9650      0.9650

AngleAngle Coeffs

  1      0.2738      0.2738      0.2738    110.7700    107.6600    110.7700
  2      0.1184      0.1184      0.1184    110.7700    110.7700    110.7700
  3     -0.3157     -0.3157     -0.3157    107.6600    107.6600    107.6600

AngleAngleTorsion Coeffs

  1    -12.5640    110.7700    110.7700
  2    -16.1640    110.7700    112.6700
  3    -22.0450    112.6700    112.6700

EndBondTorsion Coeffs

  1      0.2130      0.3120      0.0777      0.2130      0.3120      0.0777      1.1010      1.1010
  2      0.0814      0.0591      0.2219      0.2486      0.2422     -0.0925      1.1010      1.5300
  3     -0.0732      0.0000      0.0000     -0.0732      0.0000      0.0000      1.5300      1.5300

MiddleBondTorsion Coeffs

  1    -14.2610     -0.5322     -0.4864      1.5300
  2    -14.8790     -3.6581     -0.3138      1.5300
  3    -17.7870     -7.1877      0.0000      1.5300

BondBond13 Coeffs

  1      0.0000      1.1010      1.1010
  2      0.0000      1.1010      1.5300
  3      0.0000      1.5300      1.5300

AngleTorsion Coeffs

  1     -0.8085      0.5569     -0.2466     -0.8085      0.5569     -0.2466    110.7700    110.7700
  2      0.3113      0.4516     -0.1988     -0.2454      0.0000     -0.1136    110.7700    112.6700
  3      0.3886     -0.3139      0.1389      0.3886     -0.3139      0.1389    112.6700    112.6700

Atoms

      1      1   1  0.000000    33.749462128    -0.294894308    -1.934714913
      2      1   1  0.000000    -9.953320503     0.658165753    -0.611964226
      3      1   1  0.000000    61.845268250    -0.680225015    -2.137381792
      4      1   1  0.000000    49.220962524     0.496178865    -0.833485663
      5      1   1  0.000000    64.155586243    -1.035117388    -1.335155845
      6      1   1  0.000000    54.279426575     0.410303086    -0.825791419
      7      1   1  0.000000    51.766105652     0.326652348    -0.944506764
      8      1   1  0.000000     0.280232966    -0.422064334    -1.949882269
      9      1   1  0.000000    56.901351929    -0.913136303    -2.118337393
     10      1   1  0.000000    20.853704453     0.884204268    -0.345168650
     11      1   1  0.000000    51.727909088    -1.001072049    -2.106252670
     12      1   1  0.000000    33.774448395     0.730330646    -0.472521484
     13      1   1  0.000000    54.306068420    -0.837330401    -2.103751659
     14      1   1  0.000000    56.922428131     0.398616791    -0.906212151
     15      1   1  0.000000    59.478275299     0.316076368    -0.954638779
     16      1   1  0.000000    18.267425537     0.882534266    -0.180247858
     17      1   1  0.000000   -15.177113533     0.517577946    -0.739213943
     18      1   1  0.000000   -65.539634705    -1.142782569    -1.174380541
     19      1   1  0.000000     0.281112254     0.655010343    -0.550521076
     20      1   1  0.000000    49.181568146    -0.755927503    -2.107213259
     21      1   1  0.000000    62.122035980     0.317966580    -0.684782803
     22      1   2  0.000000    54.311096191    -0.684674442    -1.005621672
     23      1   2  0.000000    49.164356232    -0.599539340    -1.007328868
     24      1   2  0.000000    51.739074707    -0.776980937    -1.017394662
     25      1   2  0.000000    62.017150879    -0.724176347    -1.047917485
     26      1   1  0.000000    26.026441574    -0.034946043    -1.837724447
     27      1   1  0.000000    59.468921661    -1.022882342    -2.106211901
     28      1   1  0.000000    -1.066883326    -1.001089096     0.764754176
     29      1   1  0.000000   -64.000099182     0.790179133    -1.587274909
     30      1   2  0.000000     0.287011266    -0.410910815    -0.840881109
     31      1   1  0.000000   -43.372173309     0.752178371    -0.546374857
     32      1   1  0.000000    63.210510254    -2.540005207    -1.240494847
     33      1   1  0.000000    50.324752808    -2.357417583    -0.520167649
     34      1   2  0.000000    33.727996826    -0.328786463    -0.825164318
     35      1   2  0.000000    56.885383606    -0.705890596    -1.028978348
     36      1   1  0.000000    23.464380264     0.859316289    -0.401275158
     37      1   1  0.000000    32.405632019    -2.035174847    -0.694431067
     38      1   2  0.000000    59.466888428    -0.785568118    -1.023907661
     39      1   2  0.000000    -1.025434971    -1.042418242    -0.338112950
     40      1   2  0.000000    32.429203033    -0.984343886    -0.336095214
     41      1   1  0.000000    31.112785339    -0.326845497    -1.939560175
     42      1   1  0.000000    55.599269867    -2.376285553    -0.568051040
     43      1   1  0.000000    36.288406372     0.607660711    -0.657298803
     44      1   1  0.000000    58.108234406    -2.409265518    -0.519100010
     45      1   1  0.000000   -30.577285767    -0.649210215    -1.992991805
     46      1   1  0.000000    60.789402008    -2.424848318    -0.494337291
     47      1   2  0.000000    50.410766602    -1.263911128    -0.405035496
     48      1   1  0.000000    53.104412079    -2.420937061    -0.569363534
     49      1   1  0.000000    34.901737213    -2.137442589    -0.609945118
     50      1   1  0.000000     2.819610834    -0.120413736    -1.895800829
     51      1   2  0.000000    58.155258179    -1.310723901    -0.405296743
     52      1   2  0.000000    34.972385406    -1.065229893    -0.322732866
     53      1   2  0.000000    60.767730713    -1.328348279    -0.392559320
     54      1   1  0.000000    -1.074304700    -2.105677128    -0.628571749
     55      1   2  0.000000    63.309944153    -1.520244241    -0.817183375
     56      1   2  0.000000    55.597305298    -1.279673457    -0.406086802
     57      1   1  0.000000    38.850898743     0.648362517    -0.706952810
     58      1   1  0.000000   -12.627455711     0.648268640    -0.683865070
     59      1   2  0.000000    53.050804138    -1.326138377    -0.413618356
     60      1   1  0.000000    32.441059113    -1.057323694     0.768845797
     61      1   1  0.000000    23.404720306    -0.137153372    -1.866906762
     62      1   1  0.000000    34.950351715    -1.035756826     0.780894876
     63      1   1  0.000000    41.463241577    -0.560798287    -2.036760330
     64      1   1  0.000000    55.605167389    -1.164991498     0.697448611
     65      1   1  0.000000    58.132179260    -1.079474688     0.668708205
     66      1   1  0.000000    50.390895844    -1.051162362     0.682895541
     67      1   1  0.000000    53.080375671    -1.152402163     0.673511147
     68      1   1  0.000000    60.805381775    -1.118454576     0.685539782
     69      1   1  0.000000    -7.433771133    -0.614353836    -1.998517275
     70      1   1  0.000000    63.576416016    -1.637555480     0.241262242
     71      1   1  0.000000    26.027984619     0.837438166    -0.276309878
     72      1   1  0.000000    46.546367645    -0.712920785    -2.090251923
     73      1   1  0.000000    -2.247087955    -0.313336223    -1.971938729
     74      1   1  0.000000    18.287458420     0.101545751    -1.790098786
     75      1   1  0.000000    46.542167664     0.525777400    -0.806657076
     76      1   1  0.000000    -9.967625618    -0.448220909    -2.013626814
     77      1   1  0.000000    20.885803223    -0.070470400    -1.836783648
     78      1   1  0.000000   -12.619174004    -0.517138124    -2.029939175
     79      1   1  0.000000    44.015815735     0.446158618    -0.832314968
     80      1   1  0.000000    38.823886871    -0.548735440    -2.027556181
     81      1   1  0.000000     2.777289391     0.789881587    -0.361927152
     82      1   1  0.000000   -30.583021164     0.602712274    -0.739244521
     83      1   1  0.000000    41.501789093     0.601741791    -0.683957934
     84      1   1  0.000000    28.568138123     0.775055707    -0.468404412
     85      1   1  0.000000   -45.959297180     0.886489570    -0.408491760
     86      1   1  0.000000    36.280490875    -0.569806814    -1.975190878
     87      1   1  0.000000    31.164993286     0.776835144    -0.546003759
     88      1   1  0.000000   -15.152693748    -0.711420834    -2.010659695
     89      1   2  0.000000    18.288179398    -0.111721590    -0.698986351
     90      1   2  0.000000    46.576881409    -0.569496572    -0.992122591
     91      1   1  0.000000   -63.868515015     1.104192615     0.148481458
     92      1   1  0.000000    -4.932565212     0.707086921    -0.550518394
     93      1   2  0.000000    38.859397888    -0.439149648    -0.924382031
     94      1   2  0.000000    23.436573029    -0.189430460    -0.758629739
     95      1   1  0.000000    -2.249511957     0.738185287    -0.529832900
     96      1   2  0.000000    36.280776978    -0.478897810    -0.869789958
     97      1   2  0.000000    20.861185074    -0.154204533    -0.730835199
     98      1   1  0.000000    -7.448307514     0.558470905    -0.677251637
     99      1   1  0.000000    43.992168427    -0.828907430    -2.055665493
    100      1   2  0.000000    31.148176193    -0.294049174    -0.830454230
    101      1   2  0.000000    -2.280391693    -0.318707049    -0.864527285
    102      1   1  0.000000    28.583631516    -0.277081102    -1.889881492
    103      1   1  0.000000    47.849391937    -2.269343376    -0.618394613
    104      1   2  0.000000    26.009469986    -0.185360506    -0.736276984
    105      1   1  0.000000    -4.902484894    -0.349630177    -1.985301614
    106      1   2  0.000000    44.001148224    -0.653150976    -0.957695663
    107      1   1  0.000000   -66.189453125     0.334231943    -0.409201771
    108      1   2  0.000000    28.571588516    -0.287898213    -0.780855119
    109      1   1  0.000000     1.694113374    -2.071764946    -0.720838308
    110      1   2  0.000000   -12.589920044    -0.431577772    -0.925537825
    111      1   2  0.000000    41.443885803    -0.479653656    -0.932361662
    112      1   1  0.000000    19.555236816    -1.865805626    -0.781065404
    113      1   2  0.000000    -9.997205734    -0.413399130    -0.905949235
    114      1   1  0.000000   -38.265552521    -0.431477457    -1.949218631
    115      1   2  0.000000     2.842391968    -0.233563200    -0.793017387
    116      1   1  0.000000    40.116569519    -2.162677765    -0.641178787
    117      1   1  0.000000     5.448451042     0.837385356    -0.408368975
    118      1   2  0.000000   -15.155843735    -0.577157199    -0.907606006
    119      1   1  0.000000    45.362567902    -2.304254770    -0.543087602
    120      1   1  0.000000    42.598209381    -2.271019459    -0.550812006
    121      1   2  0.000000    19.566509247    -0.858101130    -0.306131154
    122      1   2  0.000000   -30.577886581    -0.497180760    -0.892114937
    123      1   1  0.000000   -13.767241478    -2.204282284    -0.528692842
    124      1   1  0.000000    37.614822388    -2.164093971    -0.522001326
    125      1   2  0.000000     1.606138587    -1.031124115    -0.351295233
    126      1   2  0.000000    37.590793610    -1.077334285    -0.329684317
    127      1   2  0.000000   -63.997543335     0.297800660    -0.596984386
    128      1   1  0.000000     4.166900158    -1.941230297    -0.777859032
    129      1   1  0.000000    29.869277954    -2.013109684    -0.530051589
    130      1   1  0.000000   -40.885051727     0.779857993    -0.456107348
    131      1   2  0.000000    47.866638184    -1.178639412    -0.415201306
    132      1   2  0.000000    -7.435199261    -0.525266528    -0.892333508
    133      1   1  0.000000    27.226362228    -1.979264975    -0.703185976
    134      1   2  0.000000    42.682205200    -1.182733417    -0.365070075
    135      1   1  0.000000   -31.889713287    -2.174084425    -0.517662704
    136      1   2  0.000000    40.144382477    -1.087845325    -0.375849545
    137      1   1  0.000000    24.719783783    -1.921676397    -0.773427546
    138      1   2  0.000000    -4.876371384    -0.350776821    -0.878227472
    139      1   1  0.000000    22.129684448    -1.907800555    -0.568273604
    140      1   2  0.000000    45.318138123    -1.211798191    -0.384677827
    141      1   1  0.000000   -27.983722687     0.600938976    -0.774693191
    142      1   1  0.000000     8.013092041     0.772821665    -0.411204815
    143      1   1  0.000000     1.631630421    -1.079500675     0.751949310
    144      1   1  0.000000   -33.136222839    -0.489026576    -1.966713667
    145      1   1  0.000000    47.873329163    -1.100069165     0.691647828
    146      1   2  0.000000   -65.353210449    -0.386292607    -0.386248380
    147      1   1  0.000000    45.359111786    -1.038332820     0.705378711
    148      1   2  0.000000     4.146776199    -0.920234144    -0.348391086
    149      1   1  0.000000    42.662143707    -1.043700576     0.729627371
    150      1   1  0.000000   -29.280647278    -2.168303967    -0.453240663
    151      1   2  0.000000   -31.870361328    -1.078886032    -0.297818273
    152      1   2  0.000000    29.868043900    -0.938412070    -0.276940614
    153      1   1  0.000000    37.639049530    -0.934099495     0.766232252
    154      1   2  0.000000   -13.833295822    -1.120588660    -0.344889164
    155      1   1  0.000000    40.151882172    -1.067356944     0.731619775
    156      1   2  0.000000    24.722215652    -0.903573632    -0.321746200
    157      1   1  0.000000   -11.287475586    -2.130049467    -0.686651289
    158      1   2  0.000000    22.144952774    -0.848597825    -0.254138142
    159      1   1  0.000000    -8.808040619    -2.201301336    -0.610844374
    160      1   2  0.000000    27.268667221    -0.939681053    -0.301910520
    161      1   1  0.000000    -3.556297064    -2.052081823    -0.738000691
    162      1   1  0.000000    22.156736374    -0.832406819     0.854220927
    163      1   1  0.000000    -6.027986526    -2.168087721    -0.617371082
    164      1   1  0.000000    10.548037529     0.058409791    -1.814639926
    165      1   1  0.000000   -65.359939575    -0.885108113     0.597293496
    166      1   1  0.000000    19.548837662    -1.043378830     0.783461273
    167      1   1  0.000000    29.903141022    -0.857233405     0.827049673
    168      1   2  0.000000   -11.294112206    -1.064432740    -0.385696650
    169      1   1  0.000000     4.139231205    -1.070877075     0.748460531
    170      1   2  0.000000    -3.572979212    -1.006296635    -0.377953261
    171      1   2  0.000000   -29.280315399    -1.072260618    -0.317431688
    172      1   1  0.000000    27.246597290    -1.036374331     0.798741281
    173      1   1  0.000000    24.739568710    -1.066266656     0.772249639
    174      1   1  0.000000    15.696497917    -0.088154800    -1.844923139
    175      1   2  0.000000    -8.747478485    -1.125192523    -0.357649565
    176      1   1  0.000000    15.743506432     0.855246484    -0.349833161
    177      1   1  0.000000   -25.399332047     0.601694524    -0.640957296
    178      1   1  0.000000   -61.361122131     0.399944961    -1.695595980
    179      1   1  0.000000    13.147468567     0.899724960    -0.330272406
    180      1   1  0.000000     7.988697052    -0.204725042    -1.881616831
    181      1   2  0.000000    -6.112948418    -1.099997759    -0.353776425
    182      1   1  0.000000   -31.888767242    -0.994464099     0.799993813
    183      1   1  0.000000    10.511708260     0.858962834    -0.216869429
    184      1   1  0.000000    -3.577826262    -1.081872821     0.726614296
    185      1   1  0.000000     5.467186928    -0.140720487    -1.898177862
    186      1   1  0.000000    -6.084476471    -1.033454776     0.747761548
    187      1   2  0.000000    15.721352577    -0.182029858    -0.740089834
    188      1   1  0.000000   -13.803329468    -0.970944583     0.750996411
    189      1   2  0.000000     8.005156517    -0.272566617    -0.774793148
    190      1   1  0.000000   -29.261079788    -0.864816546     0.769718409
    191      1   2  0.000000     5.433422089    -0.202665284    -0.792004466
    192      1   1  0.000000    13.177268982    -0.033390224    -1.841880202
    193      1   1  0.000000    -8.790452957    -1.050406814     0.743583143
    194      1   1  0.000000    17.050498962    -1.886435390    -0.817727387
    195      1   1  0.000000   -40.858703613    -0.244558468    -1.920632601
    196      1   1  0.000000   -11.295141220    -1.078678489     0.721989810
    197      1   2  0.000000    13.147218704    -0.130577028    -0.737552464
    198      1   1  0.000000   -22.867010117    -0.733698010    -2.005204678
    199      1   2  0.000000    10.564850807    -0.136830166    -0.721354783
    200      1   1  0.000000     9.381523132    -1.953350902    -0.797308266
    201      1   1  0.000000   -17.690345764    -0.530100346    -2.012961149
    202      1   1  0.000000    14.394673347    -1.899948359    -0.611485302
    203      1   1  0.000000   -38.264114380     0.742345750    -0.618029237
    204      1   1  0.000000   -45.946777344    -0.101731323    -1.882381082
    205      1   1  0.000000    11.871352196    -1.859420538    -0.797375977
    206      1   1  0.000000     6.660765171    -1.983294487    -0.632653713
    207      1   1  0.000000   -17.670166016     0.611859143    -0.637284160
    208      1   2  0.000000     6.697614670    -0.931176782    -0.300453842
    209      1   1  0.000000   -20.310209274     0.610516250    -0.756591082
    210      1   1  0.000000   -43.450870514    -0.359166682    -1.921869397
    211      1   2  0.000000    17.020814896    -0.885841787    -0.327140093
    212      1   2  0.000000    11.860267639    -0.856110394    -0.321004927
    213      1   1  0.000000   -61.398639679     0.873365045     0.020984368
    214      1   1  0.000000   -25.410825729    -0.566320837    -1.996276021
    215      1   2  0.000000     9.317152977    -0.941588223    -0.339468271
    216      1   2  0.000000    14.421328545    -0.850237787    -0.266503602
    217      1   1  0.000000   -35.660987854     0.648591280    -0.699942350
    218      1   1  0.000000    17.043836594    -1.079760075     0.761062801
    219      1   1  0.000000   -22.891981125     0.528423965    -0.764124393
    220      1   1  0.000000   -28.017692566    -0.664567053    -2.020512581
    221      1   1  0.000000    14.409403801    -0.866492391     0.840873659
    222      1   1  0.000000    11.848884583    -1.053635240     0.767639816
    223      1   1  0.000000   -33.141445160     0.655055761    -0.592747986
    224      1   2  0.000000   -45.983043671    -0.155977681    -0.778162777
    225      1   1  0.000000     6.667146206    -0.933574617     0.805447280
    226      1   2  0.000000   -17.715482712    -0.473789275    -0.904071569
    227      1   1  0.000000     9.343353271    -1.091015339     0.755914271
    228      1   2  0.000000   -40.856121063    -0.284509480    -0.809903443
    229      1   2  0.000000   -25.429260254    -0.493567705    -0.886221290
    230      1   2  0.000000   -43.428157806    -0.322382092    -0.807798922
    231      1   2  0.000000   -27.996421814    -0.500412703    -0.920551062
    232      1   2  0.000000   -33.141651154    -0.436359107    -0.855181515
    233      1   1  0.000000   -20.322643280    -0.625472546    -2.035091162
    234      1   1  0.000000   -35.728984833    -0.582972765    -1.973452806
    235      1   2  0.000000   -38.279216766    -0.344121397    -0.842917144
    236      1   1  0.000000   -16.517459869    -2.249921083    -0.580688298
    237      1   2  0.000000   -20.295190811    -0.482940227    -0.933662713
    238      1   2  0.000000   -35.705337524    -0.449179024    -0.871632040
    239      1   2  0.000000   -22.868795395    -0.573687196    -0.906688035
    240      1   1  0.000000   -62.922267914    -1.450859070    -1.289547801
    241      1   1  0.000000   -44.814414978    -1.964071631    -0.534602702
    242      1   1  0.000000   -24.203948975    -2.248286963    -0.539046407
    243      1   2  0.000000   -61.444194794     0.005326505    -0.659823835
    244      1   1  0.000000   -58.945960999     0.895673633    -0.163707733
    245      1   1  0.000000   -19.008325577    -2.178091764    -0.617515087
    246      1   1  0.000000   -21.515811920    -2.202643156    -0.465388775
    247      1   2  0.000000   -44.743171692    -0.897635818    -0.271607995
    248      1   2  0.000000   -62.811634064    -0.689811945    -0.499676794
    249      1   1  0.000000   -26.717794418    -2.196998119    -0.560822666
    250      1   1  0.000000   -60.233715057    -1.805123091    -0.925874293
    251      1   2  0.000000   -26.716398239    -1.104546666    -0.332686722
    252      1   2  0.000000   -16.462343216    -1.160830975    -0.347966284
    253      1   1  0.000000   -34.419948578    -2.163300037    -0.575660229
    254      1   2  0.000000   -21.554288864    -1.109644890    -0.328881085
    255      1   1  0.000000   -37.054790497    -2.083301544    -0.449266315
    256      1   1  0.000000   -39.594673157    -2.031693459    -0.586916089
    257      1   2  0.000000   -24.168762207    -1.150483489    -0.321424335
    258      1   1  0.000000   -42.111236572    -2.050559521    -0.685075521
    259      1   2  0.000000   -19.009262085    -1.095413923    -0.363256186
    260      1   1  0.000000   -56.349651337     1.013876319    -0.063755378
    261      1   1  0.000000   -16.500223160    -1.074509025     0.753418684
    262      1   1  0.000000   -62.870647430    -1.244335055     0.460385263
    263      1   1  0.000000   -19.006170273    -1.064126134     0.744384527
    264      1   2  0.000000   -60.203647614    -0.859771967    -0.357931644
    265      1   1  0.000000   -21.529390335    -0.909150779     0.760228097
    266      1   2  0.000000   -34.419113159    -1.077957034    -0.311588436
    267      1   1  0.000000   -26.703487396    -1.043695331     0.770911932
    268      1   1  0.000000   -24.198369980    -1.054637074     0.776613176
    269      1   2  0.000000   -39.575336456    -0.953897774    -0.295794964
    270      1   2  0.000000   -42.130771637    -0.993315041    -0.328587651
    271      1   2  0.000000   -37.010032654    -0.991085529    -0.280303091
    272      1   1  0.000000   -42.087249756    -1.039120197     0.777259290
    273      1   1  0.000000   -53.644554138     0.267971545    -1.786790490
    274      1   1  0.000000   -44.739334106    -0.834030092     0.836094499
    275      1   1  0.000000   -34.389472961    -1.038258076     0.789787889
    276      1   1  0.000000   -60.216896057    -1.123044372     0.714170039
    277      1   1  0.000000   -36.999355316    -0.819711328     0.812554777
    278      1   1  0.000000   -39.591163635    -0.956201911     0.809245586
    279      1   1  0.000000   -48.598114014     0.092649341    -1.849267840
    280      1   1  0.000000   -48.623123169     0.905823350    -0.258295804
    281      1   1  0.000000   -51.117912292     0.862422824    -0.364984661
    282      1   1  0.000000   -56.352695465     0.435786545    -1.750388384
    283      1   1  0.000000   -53.665920258     0.985144436    -0.161408916
    284      1   1  0.000000   -58.938381195     0.175698563    -1.775479913
    285      1   2  0.000000   -48.578437805    -0.092868172    -0.754547119
    286      1   2  0.000000   -56.318847656     0.100967683    -0.693640590
    287      1   2  0.000000   -58.921188354    -0.070210390    -0.702296317
    288      1   1  0.000000   -51.175197601    -0.070978023    -1.863450646
    289      1   1  0.000000   -47.319408417    -1.849058032    -0.796302915
    290      1   2  0.000000   -51.159797668    -0.165127337    -0.761871457
    291      1   2  0.000000   -53.700431824     0.027923165    -0.709469378
    292      1   1  0.000000   -55.060680389    -1.612409472    -1.047801375
    293      1   1  0.000000   -49.813884735    -1.886193514    -0.833184123
    294      1   1  0.000000   -52.568511963    -1.825721502    -0.731979012
    295      1   1  0.000000   -57.504878998    -1.705388784    -0.952540398
    296      1   2  0.000000   -57.575267792    -0.756383836    -0.383211523
    297      1   2  0.000000   -47.288463593    -0.834869504    -0.340998024
    298      1   2  0.000000   -52.477912903    -0.816625535    -0.306953669
    299      1   2  0.000000   -55.026546478    -0.706909180    -0.417315185
    300      1   2  0.000000   -49.853004456    -0.880961537    -0.362594932
    301      1   1  0.000000   -47.311794281    -1.006215811     0.750783682
    302      1   1  0.000000   -49.810085297    -1.038774490     0.734968722
    303      1   1  0.000000   -52.488471985    -0.919272363     0.789425194
    304      1   1  0.000000   -57.519458771    -1.016206503     0.689662516
    305      1   1  0.000000   -55.050022125    -1.071926117     0.626647472
    306      2   3 -0.820000    73.065444946   -17.993053436   -15.274168968
    307      2   4  0.410000    73.663772583   -17.485925674   -15.838565826
    308      2   4  0.410000    73.532257080   -18.204751968   -14.446591377
    309      3   3 -0.820000    69.163330078   -18.003908157   -15.277473450
    310      3   4  0.410000    69.758010864   -17.479543686   -15.829817772
    311      3   4  0.410000    69.619819641   -18.204942703   -14.441458702
    312      4   3 -0.820000    65.217842102   -18.019964218   -15.276166916
    313      4   4  0.410000    65.803413391   -17.473991394   -15.817252159
    314      4   4  0.410000    65.662391663   -18.200401306   -14.428729057
    315      5   3 -0.820000    61.267894745   -18.024642944   -15.274482727
    316      5   4  0.410000    61.849369049   -17.472564697   -15.813783646
    317      5   4  0.410000    61.711124420   -18.199632645   -14.425073624
    318      6   3 -0.820000    57.317352295   -18.024909973   -15.273457527
    319      6   4  0.410000    57.897914886   -17.472637177   -15.813528061
    320      6   4  0.410000    57.761798859   -18.199756622   -14.424637794
    321      7   3 -0.820000    53.367134094   -18.024730682   -15.273133278
    322      7   4  0.410000    53.947597504   -17.472766876   -15.813619614
    323      7   4  0.410000    53.812156677   -18.199853897   -14.424681664
    324      8   3 -0.820000    49.417079926   -18.024663925   -15.273058891
    325      8   4  0.410000    49.997535706   -17.472797394   -15.813652039
    326      8   4  0.410000    49.862251282   -18.199884415   -14.424708366
    327      9   3 -0.820000    45.467075348   -18.024662018   -15.273058891
    328      9   4  0.410000    46.047534943   -17.472805023   -15.813657761
    329      9   4  0.410000    45.912246704   -18.199884415   -14.424713135
    330     10   3 -0.820000    41.517070770   -18.024652481   -15.273048401
    331     10   4  0.410000    42.097526550   -17.472803116   -15.813658714
    332     10   4  0.410000    41.962261200   -18.199890137   -14.424714088
    333     11   3 -0.820000    37.567070007   -18.024658203   -15.273056984
    334     11   4  0.410000    38.147533417   -17.472806931   -15.813658714
    335     11   4  0.410000    38.012248993   -18.199886322   -14.424714088
    336     12   3 -0.820000    33.617069244   -18.024652481   -15.273048401
    337     12   4  0.410000    34.197528839   -17.472805023   -15.813659668
    338     12   4  0.410000    34.062259674   -18.199890137   -14.424715042
    339     13   3 -0.820000    29.667068481   -18.024654388   -15.273054123
    340     13   4  0.410000    30.247531891   -17.472806931   -15.813659668
    341     13   4  0.410000    30.112249374   -18.199888229   -14.424715042
    342     14   3 -0.820000    25.717065811   -18.024650574   -15.273049355