LAMMPS (24 Apr 2013)
WARNING: OMP_NUM_THREADS environment is not set. (../comm.cpp:100)
  using 1 OpenMP thread(s) per MPI task
# LAMMPS 2005 MD Simulation Parameters - Generated by XenoView
# Structure file "C:\Users\laflij\Dropbox\Xenoview\34m.lmp"
# Source force field file pcff_d.frc

# Define units and force field
units		real
atom_style	full
boundary	p p p
kspace_style	pppm 0.0001

# Read system data
read_restart	confout-2.data
  orthogonal box = (-80.503 -16.1006 -16.1006) to (80.503 16.1006 16.1006)
  1 by 1 by 1 MPI processor grid
  12061 atoms
  8140 bonds
  4517 angles
  888 dihedrals
  397 impropers
  4 = max # of 1-2 neighbors
  6 = max # of 1-3 neighbors
  12 = max # of 1-4 neighbors
  16 = max # of special neighbors

# Write (hopefully folded) structure out
dump            icrd all custom 1 system-3.lammpstrj id mol type x y z ix iy iz
dump_modify     icrd sort id
run             1
WARNING: No fixes defined, atoms won't move (../verlet.cpp:54)
PPPM initialization ...
  G vector (1/distance) = 0.257678
  grid = 60 18 18
  stencil order = 5
  estimated absolute RMS force accuracy = 0.0342072
  estimated relative force accuracy = 0.000103014
  using double precision FFTs
  3d grid and FFT values/proc = 40625 19440
Memory usage per processor = 59.2215 Mbytes
Step Temp E_pair E_mol TotEng Press 
  205002    202.49622   -23281.087   -140.40816   -16142.045    4266.9263 
  205003    202.49622   -23281.087   -140.40816   -16142.045    4266.9263 
Loop time of 0.131738 on 1 procs (1 MPI x 1 OpenMP) for 1 steps with 12061 atoms

Pair  time (%) = 0.0968421 (73.5111)
Bond  time (%) = 0.00237989 (1.80654)
Kspce time (%) = 0.00972509 (7.38215)
Neigh time (%) = 0 (0)
Comm  time (%) = 0.000273228 (0.207402)
Outpt time (%) = 0.0224359 (17.0307)
Other time (%) = 8.17776e-05 (0.0620759)

FFT time (% of Kspce) = 0.00247146 (25.4133)
FFT Gflps 3d (1d only) = 1.55351 2.29416

Nlocal:    12061 ave 12061 max 12061 min
Histogram: 1 0 0 0 0 0 0 0 0 0
Nghost:    30184 ave 30184 max 30184 min
Histogram: 1 0 0 0 0 0 0 0 0 0
Neighs:    3.14745e+06 ave 3.14745e+06 max 3.14745e+06 min
Histogram: 1 0 0 0 0 0 0 0 0 0

Total # of neighbors = 3147451
Ave neighs/atom = 260.961
Ave special neighs/atom = 2.24608
Neighbor list builds = 0
Dangerous builds = 0
