LAMMPS (24 Apr 2013)
WARNING: OMP_NUM_THREADS environment is not set. (../comm.cpp:100)
  using 1 OpenMP thread(s) per MPI task
# ----------------- Init Section -----------------
units           real
atom_style      full
boundary	p p p
pair_style	lj/cut/coul/long 9.8 9.8
pair_modify     mix arithmetic
kspace_style	pppm 1.0e-4
bond_style      harmonic
angle_style     harmonic
dihedral_style  none
improper_style  none

# ----------------- Atom Definition Section -----------------
read_data "cg25.data"
  2 = max bonds/atom
  1 = max angles/atom
  orthogonal box = (0 0 0) to (86 38 38)
  1 by 1 by 1 MPI processor grid
  9043 atoms
  6036 bonds
  3006 angles
  2 = max # of 1-2 neighbors
  2 = max # of 1-3 neighbors
  4 = max # of 1-4 neighbors
  6 = max # of special neighbors

# ----------------- Settings Section -----------------------
# Bond parameters
#           bond-type   k      	r0
# Water
bond_coeff   	1  	200.0   1.0
angle_coeff  	1 	200.0   109.47
# CG25
bond_coeff  	2       72.54   2.5

# LJ Interactions
#             atom1   atom2	epsilon	sigma
pair_coeff   	1 	1 	0.1553  3.166
pair_coeff   	1 	2 	0.0     0.0
pair_coeff 	1 	3 	0.1777 	3.783
pair_coeff   	2 	2 	0.0     0.0
pair_coeff   	2 	3 	0.0     0.0
pair_coeff 	3 	3 	0.2032	4.4

group spc type	1 2
9018 atoms in group spc

# ----------------- Minimize -----------------
# command  	etol    ftol   maxiter  maxeval
minimize	1.0e-4	1.0e-6	100	1000
WARNING: Resetting reneighboring criteria during minimization (../min.cpp:173)
PPPM initialization ...
  G vector (1/distance) = 0.264999
  grid = 40 20 20
  stencil order = 5
  estimated absolute RMS force accuracy = 0.0319623
  estimated relative force accuracy = 9.62535e-05
  using double precision FFTs
  3d grid and FFT values/proc = 32805 16000
Memory usage per processor = 30.7137 Mbytes
Step Temp E_pair E_mol TotEng Press 
       0            0   -3962.4133    277724.18    273761.77     36447.63 
     100            0   -23139.459    1244.9569   -21894.502   -9764.6591 
Loop time of 15.3861 on 1 procs (1 MPI x 1 OpenMP) for 100 steps with 9043 atoms

Minimization stats:
  Stopping criterion = max iterations
  Energy initial, next-to-last, final = 
         273761.768664     -21843.1966275     -21894.5024552
  Force two-norm initial, final = 29640 323.434
  Force max component initial, final = 906.37 50.1908
  Final line search alpha, max atom move = 0.00249206 0.125078
  Iterations, force evaluations = 100 210

Pair  time (%) = 13.5489 (88.0594)
Bond  time (%) = 0.103774 (0.674464)
Kspce time (%) = 1.41908 (9.22312)
Neigh time (%) = 0.218508 (1.42016)
Comm  time (%) = 0.0434079 (0.282124)
Outpt time (%) = 7.10487e-05 (0.000461772)
Other time (%) = 0.0523515 (0.340251)

FFT time (% of Kspce) = 0.136121 (9.59217)
FFT Gflps 3d (1d only) = 2.27571 4.40348

Nlocal:    9043 ave 9043 max 9043 min
Histogram: 1 0 0 0 0 0 0 0 0 0
Nghost:    21880 ave 21880 max 21880 min
Histogram: 1 0 0 0 0 0 0 0 0 0
Neighs:    2.28772e+06 ave 2.28772e+06 max 2.28772e+06 min
Histogram: 1 0 0 0 0 0 0 0 0 0

Total # of neighbors = 2287722
Ave neighs/atom = 252.983
Ave special neighs/atom = 2.00973
Neighbor list builds = 3
Dangerous builds = 0

# ----------------- Run Section -----------------
# Write initial structure out
dump            icrd all custom 5 system.lammpstrj id mol type x y z ix iy iz
dump_modify     icrd sort id
run             1
WARNING: No fixes defined, atoms won't move (../verlet.cpp:54)
PPPM initialization ...
  G vector (1/distance) = 0.264999
  grid = 40 20 20
  stencil order = 5
  estimated absolute RMS force accuracy = 0.0319623
  estimated relative force accuracy = 9.62535e-05
  using double precision FFTs
  3d grid and FFT values/proc = 32805 16000
Memory usage per processor = 29.9739 Mbytes
Step Temp E_pair E_mol TotEng Press 
     100            0   -23139.459    1244.9569   -21894.502   -9764.6591 
     101            0   -23139.459    1244.9569   -21894.502   -9764.6591 
Loop time of 0.0728741 on 1 procs (1 MPI x 1 OpenMP) for 1 steps with 9043 atoms

Pair  time (%) = 0.0650039 (89.2003)
Bond  time (%) = 0.000565052 (0.775381)
Kspce time (%) = 0.00701594 (9.62749)
Neigh time (%) = 0 (0)
Comm  time (%) = 0.000176907 (0.242757)
Outpt time (%) = 6.69956e-05 (0.0919334)
Other time (%) = 4.52995e-05 (0.0621614)

FFT time (% of Kspce) = 0.00136372 (19.4374)
FFT Gflps 3d (1d only) = 2.27152 4.40776

Nlocal:    9043 ave 9043 max 9043 min
Histogram: 1 0 0 0 0 0 0 0 0 0
Nghost:    21836 ave 21836 max 21836 min
Histogram: 1 0 0 0 0 0 0 0 0 0
Neighs:    2.28777e+06 ave 2.28777e+06 max 2.28777e+06 min
Histogram: 1 0 0 0 0 0 0 0 0 0

Total # of neighbors = 2287766
Ave neighs/atom = 252.988
Ave special neighs/atom = 2.00973
Neighbor list builds = 0
Dangerous builds = 0

# Reset the timestep
undump          icrd
reset_timestep  0

# Timestep and Neighbour searching
timestep	1.0
neighbor        2.0 bin
neigh_modify	delay 0 every 1 check yes

# Fixes
fix 		shake spc shake 0.0001 10 0 b 1 a 1
  0 = # of size 2 clusters
  0 = # of size 3 clusters
  0 = # of size 4 clusters
  3006 = # of frozen angles
fix   		npt all npt temp 300.0 300.0 100.0 iso 1.0 1.0 10000.0

# Initial velocity
#velocity	all create 300 432567 dist uniform

# Write out thermodynamic information
thermo_style    custom step temp press vol pe ke evdwl ecoul epair
thermo	        250

# Write out trajectory
dump            cxtc all xtc 1 traj-0.xtc

# Write out velocity
#dump 		1 all custom 1 vel_npt.txt vx vy vz

# Final run command
run             500
PPPM initialization ...
  G vector (1/distance) = 0.264999
  grid = 40 20 20
  stencil order = 5
  estimated absolute RMS force accuracy = 0.0319623
  estimated relative force accuracy = 9.62535e-05
  using double precision FFTs
  3d grid and FFT values/proc = 32805 16000
Memory usage per processor = 30.7389 Mbytes
Step Temp Press Volume PotEng KinEng E_vdwl E_coul E_pair 
       0            0   -131940.83       124184   -23139.433            0   -551.53523    127401.35   -23139.459 
     250    330.59196    343.48315    123964.01   -25987.393    5948.0665    4555.8365    119760.81   -25987.501 
     500    304.12448    370.05278    123715.32   -27085.873    5471.8592    4841.9087    118416.89   -27085.883 
Loop time of 33.5156 on 1 procs (1 MPI x 1 OpenMP) for 500 steps with 9043 atoms

Pair  time (%) = 24.0094 (71.6363)
Bond  time (%) = 0.00200772 (0.00599041)
Kspce time (%) = 3.50618 (10.4613)
Neigh time (%) = 1.80135 (5.37465)
Comm  time (%) = 0.116393 (0.347281)
Outpt time (%) = 0.425366 (1.26916)
Other time (%) = 3.65498 (10.9053)

FFT time (% of Kspce) = 0.676126 (19.2838)
FFT Gflps 3d (1d only) = 2.29078 4.38781

Nlocal:    9043 ave 9043 max 9043 min
Histogram: 1 0 0 0 0 0 0 0 0 0
Nghost:    21967 ave 21967 max 21967 min
Histogram: 1 0 0 0 0 0 0 0 0 0
Neighs:    2.3015e+06 ave 2.3015e+06 max 2.3015e+06 min
Histogram: 1 0 0 0 0 0 0 0 0 0

Total # of neighbors = 2301502
Ave neighs/atom = 254.506
Ave special neighs/atom = 2.00973
Neighbor list builds = 24
Dangerous builds = 0
write_restart   confout-0.data
PPPM initialization ...
  G vector (1/distance) = 0.265109
  grid = 40 20 20
  stencil order = 5
  estimated absolute RMS force accuracy = 0.0318436
  estimated relative force accuracy = 9.5896e-05
  using double precision FFTs
  3d grid and FFT values/proc = 32805 16000
