ITEM: TIMESTEP
100
ITEM: NUMBER OF ATOMS
10825
ITEM: BOX BOUNDS pp pp pp
0 88
0 42
0 42
ITEM: ATOMS id mol type x y z ix iy iz 
1 1 1 1.89015 1.38266 1.97131 0 0 0 
2 1 2 1.45453 1.29902 2.89659 0 0 0 
3 1 2 1.19323 1.71512 1.31099 0 0 0 
4 2 1 1.3259 1.61982 5.0905 0 0 0 
5 2 2 1.36178 1.36805 6.07715 0 0 0 
6 2 2 1.49116 2.61801 5.00169 0 0 0 
7 3 1 1.39489 1.56073 8.54983 0 0 0 
8 3 2 1.38265 1.40458 9.55585 0 0 0 
9 3 2 1.40231 2.56075 8.37332 0 0 0 
10 4 1 1.38592 1.5988 11.9977 0 0 0 
11 4 2 1.38563 1.45471 13.0039 0 0 0 
12 4 2 1.39767 2.60099 11.8097 0 0 0 
13 5 1 1.38073 1.62624 15.375 0 0 0 
14 5 2 1.39138 1.52577 16.3802 0 0 0 
15 5 2 1.39501 2.62309 15.1425 0 0 0 
16 6 1 1.37527 1.81827 18.8405 0 0 0 
17 6 2 1.4085 1.90704 19.8305 0 0 0 
18 6 2 1.38648 2.75487 18.4302 0 0 0 
19 7 1 1.37138 1.75341 23.3169 0 0 0 
20 7 2 1.37766 2.72893 23.6386 0 0 0 
21 7 2 1.4288 1.7452 22.3238 0 0 0 
22 8 1 1.38204 1.61609 26.6478 0 0 0 
23 8 2 1.38733 2.61366 26.8848 0 0 0 
24 8 2 1.39243 1.52156 25.6385 0 0 0 
25 9 1 1.38837 1.60274 30.0638 0 0 0 
26 9 2 1.39075 2.60678 30.2516 0 0 0 
27 9 2 1.38449 1.4602 29.0566 0 0 0 
28 10 1 1.39085 1.57309 33.5112 0 0 0 
29 10 2 1.39678 2.57649 33.6724 0 0 0 
30 10 2 1.38146 1.40363 32.5059 0 0 0 
31 11 1 1.35165 1.58018 37.0045 0 0 0 
32 11 2 1.45391 2.58334 37.1127 0 0 0 
33 11 2 1.37452 1.35273 36.0096 0 0 0 
34 12 1 1.53364 1.42731 40.1151 0 0 0 
35 12 2 1.38919 2.389 40.3801 0 0 0 
36 12 2 1.38649 1.32954 39.1052 0 0 0 
37 13 1 1.69301 5.52811 1.87769 0 0 0 
38 13 2 1.7193 4.97022 2.73306 0 0 0 
39 13 2 1.30939 4.91059 1.13447 0 0 0 
40 14 1 1.44059 5.07429 5.24806 0 0 0 
41 14 2 1.36299 4.82551 6.23323 0 0 0 
42 14 2 1.39032 6.08626 5.16419 0 0 0 
43 15 1 1.39653 5.14986 8.63719 0 0 0 
44 15 2 1.38341 4.88125 9.62171 0 0 0 
45 15 2 1.36576 6.16925 8.58115 0 0 0 
46 16 1 1.40424 5.14038 12.1024 0 0 0 
47 16 2 1.36434 4.93011 13.0958 0 0 0 
48 16 2 1.35888 6.16863 11.9859 0 0 0 
49 17 1 1.39623 5.11372 15.446 0 0 0 
50 17 2 1.35854 4.98994 16.4437 0 0 0 
51 17 2 1.37105 6.13183 15.2447 0 0 0 
52 18 1 1.39023 5.26301 18.8989 0 0 0 
53 18 2 1.42933 5.51185 19.8677 0 0 0 
54 18 2 1.37845 6.12931 18.3551 0 0 0 
55 19 1 1.3737 5.21638 23.2526 0 0 0 
56 19 2 1.39079 6.16853 23.6482 0 0 0 
57 19 2 1.49158 5.28792 22.2652 0 0 0 
58 20 1 1.37424 5.09216 26.5967 0 0 0 
59 20 2 1.41303 6.08983 26.8484 0 0 0 
60 20 2 1.40869 5.0153 25.5883 0 0 0 
61 21 1 1.38771 5.15034 30.0193 0 0 0 
62 21 2 1.37019 6.18484 30.1711 0 0 0 
63 21 2 1.38585 4.97482 29.019 0 0 0 
64 22 1 1.41912 5.23624 33.4422 0 0 0 
65 22 2 1.38455 6.28544 33.4915 0 0 0 
66 22 2 1.37329 4.96088 32.4605 0 0 0 
67 23 1 1.41045 5.18218 36.9067 0 0 0 
68 23 2 1.55091 6.18334 36.882 0 0 0 
69 23 2 1.37056 4.8382 35.9418 0 0 0 
70 24 1 1.56827 5.05458 40.1662 0 0 0 
71 24 2 1.34679 6.03232 40.3501 0 0 0 
72 24 2 1.49493 4.87986 39.1639 0 0 0 
73 25 1 1.54629 9.12091 2.4999 0 0 0 
74 25 2 1.30448 10.0713 2.23238 0 0 0 
75 25 2 1.42793 8.49889 1.69551 0 0 0 
76 26 1 1.47009 8.75025 5.49062 0 0 0 
77 26 2 1.40219 9.74373 5.70329 0 0 0 
78 26 2 1.43366 8.6292 4.46348 0 0 0 
79 27 1 1.38079 8.50539 8.82574 0 0 0 
80 27 2 1.427 9.48698 9.08829 0 0 0 
81 27 2 1.44172 8.43445 7.80725 0 0 0 
82 28 1 1.37977 8.17352 12.1558 0 0 0 
83 28 2 1.37466 9.10101 12.5664 0 0 0 
84 28 2 1.44481 8.26491 11.1407 0 0 0 
85 29 1 1.36972 8.11641 15.7935 0 0 0 
86 29 2 1.28012 8.90099 16.4299 0 0 0 
87 29 2 1.50419 8.47732 14.8583 0 0 0 
88 30 1 1.37945 8.54826 19.4841 0 0 0 
89 30 2 1.302 9.35505 20.1082 0 0 0 
90 30 2 1.54354 8.89821 18.5577 0 0 0 
91 31 1 1.37362 8.58909 23.1803 0 0 0 
92 31 2 1.33193 9.64738 23.2993 0 0 0 
93 31 2 1.48833 8.39598 22.2021 0 0 0 
94 32 1 1.37903 8.39778 26.4031 0 0 0 
95 32 2 1.39118 9.39287 26.63 0 0 0 
96 32 2 1.36641 8.30497 25.3803 0 0 0 
97 33 1 1.37344 8.05031 29.8056 0 0 0 
98 33 2 1.52731 8.95984 30.2103 0 0 0 
99 33 2 1.33927 8.1491 28.7883 0 0 0 
100 34 1 1.38611 8.07495 33.456 0 0 0 
101 34 2 1.4298 8.65501 34.274 0 0 0 
102 34 2 1.4365 8.66624 32.6294 0 0 0 
103 35 1 1.72747 8.83336 36.8726 0 0 0 
104 35 2 0.88038 8.59848 37.3745 0 0 0 
105 35 2 1.5994 9.71687 36.4027 0 0 0 
106 36 1 1.3814 8.81951 40.2862 0 0 0 
107 36 2 1.16446 9.48212 40.9884 0 0 0 
108 36 2 1.82425 9.29649 39.5048 0 0 0 
109 37 1 1.21854 12.3415 2.23234 0 0 0 
110 37 2 1.42425 13.2201 2.69668 0 0 0 
111 37 2 1.68093 12.3368 1.34173 0 0 0 
112 38 1 1.37252 12.1834 5.69074 0 0 0 
113 38 2 1.40463 13.1792 5.89852 0 0 0 
114 38 2 1.36305 12.0594 4.69023 0 0 0 
115 39 1 1.38068 12.1877 9.10281 0 0 0 
116 39 2 1.39508 13.1878 9.28443 0 0 0 
117 39 2 1.38559 12.0382 8.10196 0 0 0 
118 40 1 1.37661 12.1758 12.5823 0 0 0 
119 40 2 1.38636 13.1814 12.7217 0 0 0 
120 40 2 1.39987 11.9841 11.585 0 0 0 
121 41 1 1.38552 12.0294 15.8773 0 0 0 
122 41 2 1.41296 13.0146 16.1224 0 0 0 
123 41 2 1.3872 11.9434 14.8596 0 0 0 
124 42 1 1.37814 11.5897 19.0438 0 0 0 
125 42 2 1.42571 12.4727 19.5475 0 0 0 
126 42 2 1.39804 11.7835 18.0428 0 0 0 
127 43 1 1.36311 11.3731 23.0976 0 0 0 
128 43 2 1.40445 11.7461 24.0486 0 0 0 
129 43 2 1.42192 12.1508 22.4399 0 0 0 
130 44 1 1.38775 11.9816 26.3085 0 0 0 
131 44 2 1.38366 11.9544 27.3313 0 0 0 
132 44 2 1.43614 12.9488 26.007 0 0 0 
133 45 1 1.38904 12.2398 29.5058 0 0 0 
134 45 2 1.38174 12.0504 30.5042 0 0 0 
135 45 2 1.3956 13.2444 29.3631 0 0 0 
136 46 1 1.38483 12.2724 32.9444 0 0 0 
137 46 2 1.3872 12.1068 33.94 0 0 0 
138 46 2 1.38959 13.2748 32.7769 0 0 0 
139 47 1 1.35466 12.2018 36.3479 0 0 0 
140 47 2 1.40861 12.1105 37.3511 0 0 0 
141 47 2 1.38391 13.1932 36.1073 0 0 0 
142 48 1 1.25633 12.4336 39.8062 0 0 0 
143 48 2 1.5411 12.4553 40.7624 0 0 0 
144 48 2 1.46067 13.3327 39.3848 0 0 0 
145 49 1 1.41071 15.9614 2.33039 0 0 0 
146 49 2 1.42736 16.9395 2.64891 0 0 0 
147 49 2 1.32394 15.951 1.34187 0 0 0 
148 50 1 1.37096 15.7174 5.65687 0 0 0 
149 50 2 1.41512 16.7115 5.89198 0 0 0 
150 50 2 1.37925 15.6237 4.65217 0 0 0 
151 51 1 1.36559 15.6813 9.08805 0 0 0 
152 51 2 1.4218 16.6832 9.27797 0 0 0 
153 51 2 1.38982 15.5397 8.08595 0 0 0 
154 52 1 1.36476 15.6878 12.5683 0 0 0 
155 52 2 1.43472 16.6966 12.7181 0 0 0 
156 52 2 1.36789 15.5067 11.5701 0 0 0 
157 53 1 1.33651 15.6222 16.0066 0 0 0 
158 53 2 1.5687 16.5928 16.1667 0 0 0 
159 53 2 1.33223 15.4464 15.0027 0 0 0 
160 54 1 1.59918 15.1811 18.8816 0 0 0 
161 54 2 1.44824 16.071 19.3321 0 0 0 
162 54 2 1.38905 15.2715 17.8763 0 0 0 
163 55 1 1.61072 15.2092 23.1691 0 0 0 
164 55 2 1.40058 15.2748 24.1768 0 0 0 
165 55 2 1.43431 16.1026 22.7369 0 0 0 
166 56 1 1.34844 15.6566 26.0493 0 0 0 
167 56 2 1.33366 15.4632 27.0489 0 0 0 
168 56 2 1.53618 16.6413 25.9095 0 0 0 
169 57 1 1.36463 15.6997 29.4889 0 0 0 
170 57 2 1.36589 15.5234 30.4866 0 0 0 
171 57 2 1.43605 16.7082 29.334 0 0 0 
172 58 1 1.36677 15.6756 32.9765 0 0 0 
173 58 2 1.3879 15.5494 33.98 0 0 0 
174 58 2 1.4208 16.6757 32.7714 0 0 0 
175 59 1 1.36999 15.7096 36.3923 0 0 0 
176 59 2 1.37807 15.6256 37.3973 0 0 0 
177 59 2 1.41622 16.7016 36.1475 0 0 0 
178 60 1 1.42993 15.9777 39.7514 0 0 0 
179 60 2 1.28388 15.9883 40.7345 0 0 0 
180 60 2 1.44712 16.9492 39.4125 0 0 0 
181 61 1 1.39065 19.2483 2.22507 0 0 0 
182 61 2 1.37163 20.2052 2.63393 0 0 0 
183 61 2 1.43595 19.3518 1.23495 0 0 0 
184 62 1 1.39255 19.0902 5.57273 0 0 0 
185 62 2 1.38934 20.0952 5.77767 0 0 0 
186 62 2 1.38727 18.9739 4.56862 0 0 0 
187 63 1 1.40223 19.0401 8.97936 0 0 0 
188 63 2 1.40112 20.0446 9.13309 0 0 0 
189 63 2 1.35199 18.8697 7.97959 0 0 0 
190 64 1 1.39897 18.9669 12.4006 0 0 0 
191 64 2 1.485 19.96 12.5579 0 0 0 
192 64 2 1.31838 18.8039 11.4015 0 0 0 
193 65 1 1.40757 19.3129 16.0039 0 0 0 
194 65 2 1.56504 20.3154 15.8601 0 0 0 
195 65 2 1.245 18.88 15.0998 0 0 0 
196 66 1 1.68119 18.8276 18.799 0 0 0 
197 66 2 1.34685 19.6593 19.2442 0 0 0 
198 66 2 1.52475 18.9037 17.769 0 0 0 
199 67 1 1.62888 18.7911 23.2479 0 0 0 
200 67 2 1.51418 18.7942 24.282 0 0 0 
201 67 2 1.434 19.7112 22.898 0 0 0 
202 68 1 1.42538 19.173 26.1018 0 0 0 
203 68 2 1.24478 18.8301 27.0404 0 0 0 
204 68 2 1.57176 20.1799 26.1493 0 0 0 
205 69 1 1.39425 18.9657 29.6374 0 0 0 
206 69 2 1.31866 18.8122 30.6376 0 0 0 
207 69 2 1.46834 19.9618 29.4695 0 0 0 
208 70 1 1.3977 19.0267 33.075 0 0 0 
209 70 2 1.35099 18.8715 34.0769 0 0 0 
210 70 2 1.40759 20.0299 32.9065 0 0 0 
211 71 1 1.38631 19.0791 36.4686 0 0 0 
212 71 2 1.39309 18.9682 37.4719 0 0 0 
213 71 2 1.39421 20.0837 36.2579 0 0 0 
214 72 1 1.39424 19.2496 39.8528 0 0 0 
215 72 2 1.41609 19.3981 40.8402 0 0 0 
216 72 2 1.38897 20.1844 39.4029 0 0 0 
217 73 1 1.37638 22.1541 1.96975 0 0 0 
218 73 2 1.34648 22.521 2.91127 0 0 0 
219 73 2 1.39753 22.944 1.31877 0 0 0 
220 74 1 1.36366 22.3601 5.40806 0 0 0 
221 74 2 1.33213 22.3894 6.42621 0 0 0 
222 74 2 1.45535 23.3154 5.05593 0 0 0 
223 75 1 1.31625 22.574 8.7427 0 0 0 
224 75 2 1.32785 22.4833 9.76381 0 0 0 
225 75 2 1.50159 23.5489 8.49848 0 0 0 
226 76 1 1.30005 22.7238 11.9591 0 0 0 
227 76 2 1.24931 22.4901 12.9479 0 0 0 
228 76 2 1.53331 23.7171 11.8662 0 0 0 
229 77 1 1.38891 22.4096 15.536 0 0 0 
230 77 2 0.613616 22.6258 16.1518 0 0 0 
231 77 2 1.94734 23.2484 15.3947 0 0 0 
232 78 1 1.64338 22.6915 19.6341 0 0 0 
233 78 2 0.74771 23.08 19.3265 0 0 0 
234 78 2 2.23482 22.5482 18.8325 0 0 0 
235 79 1 1.47228 22.4076 23.2315 0 0 0 
236 79 2 2.09768 23.197 23.33 0 0 0 
237 79 2 1.03554 22.4453 22.3154 0 0 0 
238 80 1 1.32248 22.5021 26.5936 0 0 0 
239 80 2 1.74587 23.4159 26.7061 0 0 0 
240 80 2 1.03993 22.3883 25.6144 0 0 0 
241 81 1 1.35668 22.6678 29.9688 0 0 0 
242 81 2 1.48872 23.6686 30.122 0 0 0 
243 81 2 1.24667 22.5 28.9667 0 0 0 
244 82 1 1.3737 22.5445 33.312 0 0 0 
245 82 2 1.48397 23.5305 33.5476 0 0 0 
246 82 2 1.30315 22.4564 32.2955 0 0 0 
247 83 1 1.37167 22.3471 36.6491 0 0 0 
248 83 2 1.45384 23.3039 36.9981 0 0 0 
249 83 2 1.32611 22.3745 35.6301 0 0 0 
250 84 1 1.37728 22.1778 40.0924 0 0 0 
251 84 2 1.40234 22.9891 40.7188 0 0 0 
252 84 2 1.34501 22.5144 39.141 0 0 0 
253 85 1 1.4179 25.5626 1.98025 0 0 0 
254 85 2 1.38584 25.7712 2.97525 0 0 0 
255 85 2 1.36617 26.4384 1.46107 0 0 0 
256 86 1 1.42236 26.014 5.19828 0 0 0 
257 86 2 1.36833 25.9374 6.20832 0 0 0 
258 86 2 1.40296 27.0044 4.94402 0 0 0 
259 87 1 1.42494 26.0585 8.58787 0 0 0 
260 87 2 1.35923 25.9577 9.59046 0 0 0 
261 87 2 1.41231 27.0525 8.36065 0 0 0 
262 88 1 1.41345 26.0601 12.055 0 0 0 
263 88 2 1.38773 25.9799 13.0659 0 0 0 
264 88 2 1.42187 27.0464 11.8112 0 0 0 
265 89 1 1.44755 26.2071 15.2955 0 0 0 
266 89 2 1.38485 26.0623 16.2947 0 0 0 
267 89 2 1.42485 27.2022 15.1117 0 0 0 
268 90 1 1.19898 26.5231 18.7337 0 0 0 
269 90 2 1.91741 26.1834 19.3663 0 0 0 
270 90 2 1.29763 27.527 18.6263 0 0 0 
271 91 1 1.25379 26.4965 23.571 0 0 0 
272 91 2 1.3432 27.5112 23.5796 0 0 0 
273 91 2 1.74362 26.1268 22.7682 0 0 0 
274 92 1 1.4627 26.1963 26.6958 0 0 0 
275 92 2 1.44335 27.1881 26.8645 0 0 0 
276 92 2 1.32297 26.0336 25.6967 0 0 0 
277 93 1 1.41559 26.0618 30.0142 0 0 0 
278 93 2 1.42222 27.0538 30.218 0 0 0 
279 93 2 1.386 25.9406 29.0083 0 0 0 
280 94 1 1.42247 26.0545 33.4682 0 0 0 
281 94 2 1.41095 27.0506 33.666 0 0 0 
282 94 2 1.36051 25.9237 32.467 0 0 0 
283 95 1 1.41557 25.9955 36.8535 0 0 0 
284 95 2 1.40532 26.9856 37.0921 0 0 0 
285 95 2 1.3729 25.9027 35.8434 0 0 0 
286 96 1 1.41752 25.5239 40.0805 0 0 0 
287 96 2 1.36718 26.3772 40.6345 0 0 0 
288 96 2 1.38758 25.7704 39.0951 0 0 0 
289 97 1 1.44482 29.2139 1.93368 0 0 0 
290 97 2 1.39527 29.3902 2.93385 0 0 0 
291 97 2 1.40967 30.1064 1.44316 0 0 0 
292 98 1 1.42521 29.5647 5.18737 0 0 0 
293 98 2 1.37218 29.4807 6.19574 0 0 0 
294 98 2 1.42591 30.5682 4.93881 0 0 0 
295 99 1 1.39951 29.5183 8.57191 0 0 0 
296 99 2 1.38636 29.4405 9.58365 0 0 0 
297 99 2 1.4135 30.5101 8.31864 0 0 0 
298 100 1 1.38054 29.5505 11.9721 0 0 0 
299 100 2 1.39122 29.4292 12.9801 0 0 0 
300 100 2 1.41156 30.5481 11.7612 0 0 0 
301 101 1 1.37128 29.567 15.2991 0 0 0 
302 101 2 1.38384 29.4063 16.2997 0 0 0 
303 101 2 1.4061 30.5723 15.1244 0 0 0 
304 102 1 1.37037 29.5872 18.7316 0 0 0 
305 102 2 1.45974 29.5322 19.7265 0 0 0 
306 102 2 1.36829 30.5681 18.4543 0 0 0 
307 103 1 1.37424 29.534 23.3941 0 0 0 
308 103 2 1.32431 30.5299 23.5974 0 0 0 
309 103 2 1.5943 29.409 22.4227 0 0 0 
310 104 1 1.39068 29.5774 26.7335 0 0 0 
311 104 2 1.40235 30.5881 26.8645 0 0 0 
312 104 2 1.34835 29.3739 25.7397 0 0 0 
313 105 1 1.39515 29.5615 30.0805 0 0 0 
314 105 2 1.40457 30.5624 30.2604 0 0 0 
315 105 2 1.39085 29.4106 29.075 0 0 0 
316 106 1 1.40347 29.5329 33.4888 0 0 0 
317 106 2 1.40548 30.5309 33.6931 0 0 0 
318 106 2 1.38657 29.406 32.4802 0 0 0 
319 107 1 1.39307 29.5681 36.9017 0 0 0 
320 107 2 1.41637 30.5711 37.095 0 0 0 
321 107 2 1.38561 29.4276 35.8948 0 0 0 
322 108 1 1.48947 29.267 40.0873 0 0 0 
323 108 2 1.39401 30.1399 40.6022 0 0 0 
324 108 2 1.37712 29.4493 39.0955 0 0 0 
325 109 1 1.47772 32.7322 1.70785 0 0 0 
326 109 2 1.39519 33.353 2.49921 0 0 0 
327 109 2 1.41479 33.2794 0.859172 0 0 0 
328 110 1 1.41739 32.8559 5.30707 0 0 0 
329 110 2 1.37078 32.9224 6.31508 0 0 0 
330 110 2 1.40681 33.7965 4.91051 0 0 0 
331 111 1 1.37905 32.9799 8.59517 0 0 0 
332 111 2 1.388 32.8774 9.6045 0 0 0 
333 111 2 1.3909 33.9735 8.36337 0 0 0 
334 112 1 1.37173 32.9718 12.0257 0 0 0 
335 112 2 1.3854 32.867 13.0346 0 0 0 
336 112 2 1.38212 33.9664 11.796 0 0 0 
337 113 1 1.37673 32.9779 15.3869 0 0 0 
338 113 2 1.33562 32.8901 16.3953 0 0 0 
339 113 2 1.38247 33.9691 15.1408 0 0 0 
340 114 1 1.38565 33.1137 18.7836 0 0 0 
341 114 2 1.48577 33.1251 19.777 0 0 0 
342 114 2 1.40445 34.0733 18.4421 0 0 0 
343 115 1 1.35444 33.0787 23.4041 0 0 0 
344 115 2 1.35775 34.0766 23.6098 0 0 0 
345 115 2 1.63785 32.9424 22.451 0 0 0 
346 116 1 1.38092 32.9871 26.617 0 0 0 
347 116 2 1.39269 33.98 26.8536 0 0 0 
348 116 2 1.32631 32.8903 25.6045 0 0 0 
349 117 1 1.37849 33.0013 30.0496 0 0 0 
350 117 2 1.38401 34.0021 30.2482 0 0 0 
351 117 2 1.38464 32.8658 29.0435 0 0 0 
352 118 1 1.39325 33.0217 33.5013 0 0 0 
353 118 2 1.38054 34.0234 33.697 0 0 0 
354 118 2 1.38295 32.8832 32.494 0 0 0 
355 119 1 1.39507 33.0419 36.9281 0 0 0 
356 119 2 1.3944 34.0378 37.16 0 0 0 
357 119 2 1.38231 32.9394 35.9173 0 0 0 
358 120 1 1.46961 33.1201 40.3165 0 0 0 
359 120 2 1.41207 34.1081 40.5837 0 0 0 
360 120 2 1.36433 33.0408 39.3157 0 0 0 
361 121 1 1.43998 36.1683 1.76687 0 0 0 
362 121 2 1.38124 36.7314 2.59752 0 0 0 
363 121 2 1.38176 36.767 0.958029 0 0 0 
364 122 1 1.43695 36.4592 5.27709 0 0 0 
365 122 2 1.36061 36.417 6.28746 0 0 0 
366 122 2 1.36695 37.4243 4.97718 0 0 0 
367 123 1 1.36907 36.5333 8.58461 0 0 0 
368 123 2 1.38133 36.3995 9.59125 0 0 0 
369 123 2 1.38785 37.5316 8.38355 0 0 0 
370 124 1 1.37007 36.5158 12.0194 0 0 0 
371 124 2 1.37528 36.4039 13.028 0 0 0 
372 124 2 1.39255 37.5105 11.7965 0 0 0 
373 125 1 1.36183 36.5071 15.371 0 0 0 
374 125 2 1.39764 36.414 16.3778 0 0 0 
375 125 2 1.39776 37.4974 15.129 0 0 0 
376 126 1 1.35962 36.6478 18.8042 0 0 0 
377 126 2 1.64885 36.6677 19.7608 0 0 0 
378 126 2 1.37099 37.5969 18.4383 0 0 0 
379 127 1 1.35197 36.6184 23.3851 0 0 0 
380 127 2 1.36637 37.6102 23.6196 0 0 0 
381 127 2 1.71579 36.4981 22.4572 0 0 0 
382 128 1 1.37221 36.5225 26.6339 0 0 0 
383 128 2 1.40247 37.515 26.8691 0 0 0 
384 128 2 1.33918 36.4248 25.6217 0 0 0 
385 129 1 1.36905 36.5297 30.048 0 0 0 
386 129 2 1.39422 37.5274 30.2577 0 0 0 
387 129 2 1.38591 36.4052 29.04 0 0 0 
388 130 1 1.38206 36.5356 33.5011 0 0 0 
389 130 2 1.3849 37.5353 33.7017 0 0 0 
390 130 2 1.38166 36.4025 32.4931 0 0 0 
391 131 1 1.39236 36.5242 36.9344 0 0 0 
392 131 2 1.38294 37.5169 37.1694 0 0 0 
393 131 2 1.37792 36.4247 35.923 0 0 0 
394 132 1 1.40965 36.4692 40.2687 0 0 0 
395 132 2 1.40151 37.4412 40.5852 0 0 0 
396 132 2 1.37399 36.4519 39.2585 0 0 0 
397 133 1 1.59456 39.6517 1.88202 0 0 0 
398 133 2 1.35039 39.9214 2.83368 0 0 0 
399 133 2 1.35044 40.3996 1.25321 0 0 0 
400 134 1 1.34977 40.0602 5.17253 0 0 0 
401 134 2 1.39032 39.878 6.1746 0 0 0 
402 134 2 1.40208 41.0591 5.01763 0 0 0 
403 135 1 1.37564 40.064 8.54681 0 0 0 
404 135 2 1.38679 39.9126 9.55139 0 0 0 
405 135 2 1.3928 41.0655 8.36364 0 0 0 
406 136 1 1.38018 40.0668 11.9944 0 0 0 
407 136 2 1.38119 39.9391 13.0021 0 0 0 
408 136 2 1.39539 41.0644 11.7877 0 0 0 
409 137 1 1.3718 40.0805 15.3551 0 0 0 
410 137 2 1.40793 39.9668 16.3597 0 0 0 
411 137 2 1.39693 41.0759 15.1337 0 0 0 
412 138 1 1.31368 40.2544 18.8066 0 0 0 
413 138 2 1.54175 40.2736 19.7778 0 0 0 
414 138 2 1.3882 41.1972 18.4343 0 0 0 
415 139 1 1.31537 40.2107 23.3772 0 0 0 
416 139 2 1.38469 41.1992 23.6208 0 0 0 
417 139 2 1.56168 40.0965 22.4144 0 0 0 
418 140 1 1.38438 40.0802 26.6495 0 0 0 
419 140 2 1.39314 41.0752 26.8792 0 0 0 
420 140 2 1.37419 39.977 25.6377 0 0 0 
421 141 1 1.3808 40.0713 30.0641 0 0 0 
422 141 2 1.39378 41.0711 30.2632 0 0 0 
423 141 2 1.385 39.9375 29.0564 0 0 0 
424 142 1 1.38439 40.0606 33.5155 0 0 0 
425 142 2 1.39146 41.0626 33.6974 0 0 0 
426 142 2 1.38532 39.9094 32.5091 0 0 0 
427 143 1 1.37857 40.0382 36.9491 0 0 0 
428 143 2 1.38735 41.0371 37.1351 0 0 0 
429 143 2 1.38372 39.8893 35.9414 0 0 0 
430 144 1 1.4153 39.8543 40.1666 0 0 0 
431 144 2 1.41544 40.8082 40.5047 0 0 0 
432 144 2 1.37623 39.8601 39.1511 0 0 0 
433 145 1 5.31203 1.82275 1.94976 0 0 0 
434 145 2 5.10409 1.41724 2.83836 0 0 0 
435 145 2 4.63363 1.46711 1.26678 0 0 0 
436 146 1 4.88874 1.5474 5.16789 0 0 0 
437 146 2 4.98748 1.40028 6.16283 0 0 0 
438 146 2 5.09218 2.52036 4.9589 0 0 0 
439 147 1 4.97587 1.57327 8.54642 0 0 0 
440 147 2 4.9772 1.41336 9.5519 0 0 0 
441 147 2 5.00639 2.57384 8.37304 0 0 0 
442 148 1 4.96902 1.60993 12.0002 0 0 0 
443 148 2 4.97991 1.45465 13.0046 0 0 0 
444 148 2 4.99577 2.6156 11.8231 0 0 0 
445 149 1 4.9616 1.63618 15.3783 0 0 0 
446 149 2 5.01521 1.52127 16.381 0 0 0 
447 149 2 4.98174 2.63652 15.1591 0 0 0 
448 150 1 4.96686 1.8429 18.8368 0 0 0 
449 150 2 5.04223 1.908 19.8269 0 0 0 
450 150 2 4.96287 2.78924 18.4486 0 0 0 
451 151 1 4.95459 1.77772 23.3259 0 0 0 
452 151 2 4.95205 2.76307 23.6206 0 0 0 
453 151 2 5.0842 1.73979 22.3394 0 0 0 
454 152 1 4.96742 1.62969 26.6385 0 0 0 
455 152 2 4.97647 2.62897 26.8672 0 0 0 
456 152 2 4.99876 1.52694 25.6299 0 0 0 
457 153 1 4.97554 1.61184 30.0574 0 0 0 
458 153 2 4.98478 2.61849 30.2305 0 0 0 
459 153 2 4.97546 1.45528 29.0524 0 0 0 
460 154 1 4.97805 1.56312 33.5066 0 0 0 
461 154 2 4.99661 2.56442 33.6788 0 0 0 
462 154 2 4.97195 1.40408 32.4992 0 0 0 
463 155 1 4.9132 1.59613 36.9909 0 0 0 
464 155 2 5.06674 2.59691 37.1173 0 0 0 
465 155 2 4.96618 1.37938 35.9961 0 0 0 
466 156 1 5.29155 1.41914 40.0889 0 0 0 
467 156 2 4.83028 2.2211 40.4996 0 0 0 
468 156 2 4.97911 1.31122 39.1245 0 0 0 
469 157 1 5.16267 5.60535 1.92326 0 0 0 
470 157 2 5.26004 4.98922 2.71854 0 0 0 
471 157 2 4.74328 5.05893 1.18161 0 0 0 
472 158 1 5.21411 4.92032 5.31871 0 0 0 
473 158 2 5.05524 4.76876 6.31917 0 0 0 
474 158 2 4.75849 5.78103 5.04838 0 0 0 
475 159 1 4.98513 5.05274 8.6126 0 0 0 
476 159 2 4.98382 4.78141 9.59607 0 0 0 
477 159 2 4.92771 6.06592 8.5588 0 0 0 
478 160 1 4.98254 5.00193 12.1115 0 0 0 
479 160 2 4.95865 4.85326 13.1182 0 0 0 
480 160 2 4.92453 6.00427 11.9322 0 0 0 
481 161 1 4.9766 5.04833 15.4737 0 0 0 
482 161 2 4.97058 4.94011 16.4747 0 0 0 
483 161 2 4.94563 6.05333 15.2569 0 0 0 
484 162 1 4.97145 5.263 18.9591 0 0 0 
485 162 2 5.06768 5.57223 19.9106 0 0 0 
486 162 2 4.92358 6.0918 18.3685 0 0 0 
487 163 1 4.94264 5.25282 23.2433 0 0 0 
488 163 2 4.90849 6.22214 23.6272 0 0 0 
489 163 2 5.16672 5.31839 22.2747 0 0 0 
490 164 1 4.9619 5.12341 26.5354 0 0 0 
491 164 2 4.93209 6.16474 26.704 0 0 0 
492 164 2 5.01715 4.97294 25.5367 0 0 0 
493 165 1 4.98649 5.0753 29.9262 0 0 0 
494 165 2 4.9098 6.08803 30.0771 0 0 0 
495 165 2 4.97648 4.90171 28.9211 0 0 0 
496 166 1 5.0136 5.08758 33.4198 0 0 0 
497 166 2 4.90205 6.09675 33.4586 0 0 0 
498 166 2 4.97497 4.79818 32.4415 0 0 0 
499 167 1 5.01206 4.95412 36.8432 0 0 0 
500 167 2 5.05464 5.95296 36.9696 0 0 0 
501 167 2 4.9993 4.75144 35.8379 0 0 0 
502 168 1 5.42457 5.08303 40.1779 0 0 0 
503 168 2 4.66617 5.63525 40.5526 0 0 0 
504 168 2 5.20902 4.83815 39.2191 0 0 0 
505 169 1 5.20674 9.34555 1.6752 0 0 0 
506 169 2 4.70474 9.7873 2.36711 0 0 0 
507 169 2 5.0929 8.2778 1.80875 0 0 0 
508 170 1 5.24205 8.89323 5.67737 0 0 0 
509 170 2 5.00642 9.87827 5.82324 0 0 0 
510 170 2 4.7365 8.55016 4.87644 0 0 0 
511 171 1 4.94415 8.6579 8.97497 0 0 0 
512 171 2 5.05191 9.64325 9.21008 0 0 0 
513 171 2 5.09379 8.54288 7.97212 0 0 0 
514 172 1 4.95286 8.51626 12.3562 0 0 0 
515 172 2 5.02913 9.50511 12.5957 0 0 0 
516 172 2 4.99315 8.42128 11.3402 0 0 0 
517 173 1 4.95267 8.30701 15.7772 0 0 0 
518 173 2 4.96037 9.25521 16.1619 0 0 0 
519 173 2 5.01819 8.36744 14.7618 0 0 0 
520 174 1 4.93461 8.50756 19.3998 0 0 0 
521 174 2 4.88484 9.51009 19.6794 0 0 0 
522 174 2 5.1264 8.47177 18.4146 0 0 0 
523 175 1 4.94573 8.27371 22.8139 0 0 0 
524 175 2 4.9584 9.20813 23.2597 0 0 0 
525 175 2 4.98624 8.40737 21.8082 0 0 0 
526 176 1 4.93589 7.93702 26.4197 0 0 0 
527 176 2 5.0192 8.37113 27.3323 0 0 0 
528 176 2 4.92739 8.67019 25.7052 0 0 0 
529 177 1 4.95291 8.36051 29.8443 0 0 0 
530 177 2 4.99847 8.35778 30.8651 0 0 0 
531 177 2 5.02509 9.32109 29.5141 0 0 0 
532 178 1 4.93756 8.65299 33.041 0 0 0 
533 178 2 5.07835 8.51141 34.0364 0 0 0 
534 178 2 5.08376 9.6397 32.8259 0 0 0 
535 179 1 5.23967 8.86546 36.5446 0 0 0 
536 179 2 4.45777 8.57114 37.1151 0 0 0 
537 179 2 5.13513 9.86728 36.3314 0 0 0 
538 180 1 5.30722 8.94409 40.0417 0 0 0 
539 180 2 4.88509 8.89727 40.9683 0 0 0 
540 180 2 5.10715 9.83371 39.638 0 0 0 
541 181 1 4.66451 12.5766 2.23214 0 0 0 
542 181 2 5.10403 13.4124 2.55788 0 0 0 
543 181 2 5.36295 12.0196 1.70828 0 0 0 
544 182 1 4.91485 12.1598 5.64518 0 0 0 
545 182 2 5.02406 13.1304 5.92853 0 0 0 
546 182 2 4.91011 12.1188 4.64086 0 0 0 
547 183 1 4.96767 12.126 9.09476 0 0 0 
548 183 2 4.99145 13.1228 9.29766 0 0 0 
549 183 2 4.98232 11.9986 8.0936 0 0 0 
550 184 1 4.96075 12.0392 12.5619 0 0 0 
551 184 2 4.9916 13.0273 12.7861 0 0 0 
552 184 2 5.02005 11.9319 11.5555 0 0 0 
553 185 1 4.97145 12.0773 16.0268 0 0 0 
554 185 2 5.05744 13.0778 16.197 0 0 0 
555 185 2 4.98099 11.9159 15.0244 0 0 0 
556 186 1 4.93958 11.4708 18.976 0 0 0 
557 186 2 5.0574 12.3362 19.4937 0 0 0 
558 186 2 4.96978 11.6832 17.9683 0 0 0 
559 187 1 4.92599 11.3862 23.1932 0 0 0 
560 187 2 4.9647 11.7008 24.1799 0 0 0 
561 187 2 5.05787 12.1904 22.5894 0 0 0 
562 188 1 4.96874 12.1634 26.0276 0 0 0 
563 188 2 4.9625 11.9331 27.0179 0 0 0 
564 188 2 5.0872 13.1674 25.9251 0 0 0 
565 189 1 4.96952 12.0935 29.4711 0 0 0 
566 189 2 5.01586 11.9664 30.4721 0 0 0 
567 189 2 4.99006 13.0851 29.266 0 0 0 
568 190 1 4.98461 12.131 32.9987 0 0 0 
569 190 2 4.97628 12.0498 34.0047 0 0 0 
570 190 2 4.98014 13.1181 32.75 0 0 0 
571 191 1 4.91428 12.1869 36.3731 0 0 0 
572 191 2 4.94075 12.1186 37.3801 0 0 0 
573 191 2 5.00803 13.1664 36.1127 0 0 0 
574 192 1 4.72658 12.5344 39.7509 0 0 0 
575 192 2 5.24683 12.203 40.558 0 0 0 
576 192 2 5.12071 13.4138 39.4521 0 0 0 
577 193 1 5.06126 16.011 2.37628 0 0 0 
578 193 2 5.06546 17.0104 2.62236 0 0 0 
579 193 2 4.80884 15.9177 1.41691 0 0 0 
580 194 1 4.94262 15.7477 5.66518 0 0 0 
581 194 2 5.01694 16.7464 5.87855 0 0 0 
582 194 2 4.9592 15.631 4.66134 0 0 0 
583 195 1 4.9314 15.6772 9.0879 0 0 0 
584 195 2 5.03407 16.6737 9.29519 0 0 0 
585 195 2 4.98255 15.5467 8.08414 0 0 0 
586 196 1 4.91165 15.7474 12.6603 0 0 0 
587 196 2 5.06784 16.7539 12.7709 0 0 0 
588 196 2 4.94112 15.5205 11.6722 0 0 0 
589 197 1 4.89665 15.5784 15.935 0 0 0 
590 197 2 5.17446 16.5322 16.1479 0 0 0 
591 197 2 4.87809 15.4609 14.9186 0 0 0 
592 198 1 5.46734 15.2901 18.8752 0 0 0 
593 198 2 4.96729 15.9836 19.4015 0 0 0 
594 198 2 5.06253 15.2269 17.9337 0 0 0 
595 199 1 5.4999 15.3333 23.1716 0 0 0 
596 199 2 5.0961 15.2173 24.109 0 0 0 
597 199 2 4.96393 16.0158 22.6671 0 0 0 
598 200 1 4.92422 15.5919 26.1218 0 0 0 
599 200 2 4.87335 15.4725 27.1363 0 0 0 
600 200 2 5.14497 16.563 25.918 0 0 0 
601 201 1 4.91616 15.7526 29.3995 0 0 0 
602 201 2 4.93414 15.5332 30.3889 0 0 0 
603 201 2 5.06742 16.7598 29.283 0 0 0 
604 202 1 4.93426 15.6749 32.9717 0 0 0 
605 202 2 4.97916 15.5522 33.9761 0 0 0 
606 202 2 5.03068 16.6707 32.7576 0 0 0 
607 203 1 4.94392 15.7389 36.3933 0 0 0 
608 203 2 4.96632 15.6343 37.3977 0 0 0 
609 203 2 5.01376 16.7352 36.1676 0 0 0 
610 204 1 5.08806 16.0218 39.7008 0 0 0 
611 204 2 4.74451 15.9412 40.6353 0 0 0 
612 204 2 5.09123 17.0165 39.4351 0 0 0 
613 205 1 4.98296 19.2456 2.22618 0 0 0 
614 205 2 4.98636 20.2325 2.58396 0 0 0 
615 205 2 5.00161 19.2923 1.23386 0 0 0 
616 206 1 4.97563 19.0558 5.56178 0 0 0 
617 206 2 5.00789 20.0508 5.79663 0 0 0 
618 206 2 4.96389 18.9699 4.55338 0 0 0 
619 207 1 4.97816 19.0079 9.01544 0 0 0 
620 207 2 5.03485 20.0107 9.16935 0 0 0 
621 207 2 4.90192 18.8398 8.01758 0 0 0 
622 208 1 4.93012 18.963 12.4822 0 0 0 
623 208 2 5.13734 19.9478 12.6007 0 0 0 
624 208 2 4.84625 18.7672 11.4882 0 0 0 
625 209 1 5.00604 18.9948 15.8961 0 0 0 
626 209 2 5.34664 19.9464 15.9668 0 0 0 
627 209 2 4.74754 18.8131 14.9286 0 0 0 
628 210 1 5.4083 19.1913 18.7557 0 0 0 
629 210 2 4.51511 19.1756 19.2343 0 0 0 
630 210 2 5.26846 18.8853 17.789 0 0 0 
631 211 1 5.36454 19.1661 23.2857 0 0 0 
632 211 2 5.27322 18.8638 24.2568 0 0 0 
633 211 2 4.46501 19.0523 22.8237 0 0 0 
634 212 1 5.02346 18.9842 26.1554 0 0 0 
635 212 2 4.74361 18.8088 27.1183 0 0 0 
636 212 2 5.32774 19.9495 26.077 0 0 0 
637 213 1 4.93641 18.9558 29.5738 0 0 0 
638 213 2 4.84181 18.7755 30.5691 0 0 0 
639 213 2 5.12108 19.9439 29.4405 0 0 0 
640 214 1 4.979 19.0031 33.0458 0 0 0 
641 214 2 4.90084 18.8463 34.0451 0 0 0 
642 214 2 5.03403 20.0045 32.8807 0 0 0 
643 215 1 4.9728 19.0597 36.4953 0 0 0 
644 215 2 4.97481 18.9744 37.5036 0 0 0 
645 215 2 5.00563 20.056 36.2594 0 0 0 
646 216 1 4.99367 19.2365 39.8252 0 0 0 
647 216 2 4.94851 19.2766 40.8176 0 0 0 
648 216 2 5.01932 20.2273 39.4747 0 0 0 
649 217 1 4.98229 22.0993 2.12632 0 0 0 
650 217 2 4.92873 22.4299 3.08675 0 0 0 
651 217 2 4.9739 22.9138 1.50332 0 0 0 
652 218 1 4.96474 22.4499 5.41489 0 0 0 
653 218 2 4.92371 22.4247 6.43404 0 0 0 
654 218 2 5.03932 23.4207 5.11748 0 0 0 
655 219 1 4.94358 22.6384 8.71907 0 0 0 
656 219 2 4.90782 22.5279 9.72721 0 0 0 
657 219 2 5.09603 23.62 8.5079 0 0 0 
658 220 1 4.99245 22.7557 12.1548 0 0 0 
659 220 2 4.7421 22.6007 13.1253 0 0 0 
660 220 2 5.04987 23.7577 11.9914 0 0 0 
661 221 1 4.81374 22.6625 15.4155 0 0 0 
662 221 2 4.66578 22.502 16.4195 0 0 0 
663 221 2 5.38617 23.4779 15.3107 0 0 0 
664 222 1 4.94738 22.7891 18.3674 0 0 0 
665 222 2 4.63089 23.154 19.2481 0 0 0 
666 222 2 5.89685 22.4174 18.4872 0 0 0 
667 223 1 4.99501 22.8183 23.6414 0 0 0 
668 223 2 6.01005 22.7189 23.5431 0 0 0 
669 223 2 4.54817 22.331 22.8842 0 0 0 
670 224 1 4.84445 22.6727 26.5986 0 0 0 
671 224 2 5.299 23.5566 26.7229 0 0 0 
672 224 2 4.67077 22.5417 25.5968 0 0 0 
673 225 1 5.02999 22.7287 29.8796 0 0 0 
674 225 2 5.0436 23.7282 30.0509 0 0 0 
675 225 2 4.74381 22.5696 28.919 0 0 0 
676 226 1 4.96073 22.6209 33.3325 0 0 0 
677 226 2 5.09718 23.6047 33.5377 0 0 0 
678 226 2 4.89745 22.5076 32.326 0 0 0 
679 227 1 4.96613 22.4172 36.615 0 0 0 
680 227 2 5.04187 23.3827 36.9268 0 0 0 
681 227 2 4.92127 22.4073 35.5951 0 0 0 
682 228 1 4.98495 22.078 39.9424 0 0 0 
683 228 2 4.97831 22.8713 40.5918 0 0 0 
684 228 2 4.92427 22.4401 38.9951 0 0 0 
685 229 1 5.145 25.5608 2.04535 0 0 0 
686 229 2 4.96582 25.727 3.0363 0 0 0 
687 229 2 4.91079 26.4014 1.52607 0 0 0 
688 230 1 5.02964 26.0206 5.18744 0 0 0 
689 230 2 4.91165 25.9222 6.18831 0 0 0 
690 230 2 5.00846 27.0128 4.9533 0 0 0 
691 231 1 5.03021 26.0365 8.60726 0 0 0 
692 231 2 4.92063 25.9272 9.60499 0 0 0 
693 231 2 5.00806 27.0319 8.38442 0 0 0 
694 232 1 5.01058 26.0287 12.0994 0 0 0 
695 232 2 4.98303 25.9746 13.1186 0 0 0 
696 232 2 5.01263 27.0108 11.8281 0 0 0 
697 233 1 5.06622 26.2829 15.2163 0 0 0 
698 233 2 4.93492 26.0661 16.1913 0 0 0 
699 233 2 5.02907 27.2887 15.0988 0 0 0 
700 234 1 4.94309 26.6148 18.9248 0 0 0 
701 234 2 5.89615 26.371 19.2418 0 0 0 
702 234 2 4.8812 27.643 18.8121 0 0 0 
703 235 1 4.85804 26.6091 23.4672 0 0 0 
704 235 2 4.81419 27.6296 23.3112 0 0 0 
705 235 2 5.66411 26.2291 22.9702 0 0 0 
706 236 1 5.09523 26.2203 26.7325 0 0 0 
707 236 2 5.03453 27.2134 26.8903 0 0 0 
708 236 2 4.85869 26.0297 25.7621 0 0 0 
709 237 1 5.02079 26.0277 29.9792 0 0 0 
710 237 2 5.01627 27.0173 30.2143 0 0 0 
711 237 2 5.00089 25.9357 28.9659 0 0 0 
712 238 1 5.02765 26.0312 33.4442 0 0 0 
713 238 2 5.00889 27.0277 33.6496 0 0 0 
714 238 2 4.92134 25.9042 32.4468 0 0 0 
715 239 1 5.01686 26.0141 36.8578 0 0 0 
716 239 2 5.01209 27.0081 37.0772 0 0 0 
717 239 2 4.92509 25.9026 35.8555 0 0 0 
718 240 1 5.14534 25.5071 40.0132 0 0 0 
719 240 2 4.90365 26.3126 40.5797 0 0 0 
720 240 2 4.96219 25.7257 39.0341 0 0 0 
721 241 1 5.32099 29.3212 1.99684 0 0 0 
722 241 2 5.03071 29.3945 2.97162 0 0 0 
723 241 2 5.03184 30.167 1.508 0 0 0 
724 242 1 5.09421 29.6391 5.19493 0 0 0 
725 242 2 4.92239 29.5207 6.18756 0 0 0 
726 242 2 5.04535 30.6525 4.97045 0 0 0 
727 243 1 5.03279 29.5696 8.57807 0 0 0 
728 243 2 4.96911 29.4808 9.58806 0 0 0 
729 243 2 5.01706 30.5634 8.33657 0 0 0 
730 244 1 4.98243 29.5943 11.9265 0 0 0 
731 244 2 4.96854 29.4524 12.9325 0 0 0 
732 244 2 5.00785 30.596 11.7386 0 0 0 
733 245 1 4.96597 29.601 15.1788 0 0 0 
734 245 2 5.1714 29.4013 16.145 0 0 0 
735 245 2 4.91599 30.6137 15.0528 0 0 0 
736 246 1 4.91489 29.4292 18.9068 0 0 0 
737 246 2 5.28904 29.4734 19.8383 0 0 0 
738 246 2 4.9715 30.3509 18.484 0 0 0 
739 247 1 4.94821 29.4008 23.0534 0 0 0 
740 247 2 4.94042 30.3167 23.4799 0 0 0 
741 247 2 5.78663 29.307 22.4852 0 0 0 
742 248 1 4.98197 29.6162 26.8556 0 0 0 
743 248 2 4.93991 30.6318 26.9319 0 0 0 
744 248 2 5.01488 29.3618 25.8827 0 0 0 
745 249 1 5.00224 29.6062 30.1131 0 0 0 