ITEM: TIMESTEP
100
ITEM: NUMBER OF ATOMS
9043
ITEM: BOX BOUNDS pp pp pp
0 86
0 38
0 38
ITEM: ATOMS id mol type x y z ix iy iz 
1 1 1 1.65294 0.733695 2.62114 0 0 0 
2 1 2 1.67073 1.17343 3.55865 0 0 0 
3 1 2 2.09563 1.35415 1.95653 0 0 0 
4 2 1 2.06154 1.70674 5.37579 0 0 0 
5 2 2 1.85018 1.60323 6.40675 0 0 0 
6 2 2 2.02254 2.75196 5.12797 0 0 0 
7 3 1 1.87942 1.85299 8.19549 0 0 0 
8 3 2 1.62725 1.40577 9.0842 0 0 0 
9 3 2 1.74487 2.90411 8.30734 0 0 0 
10 4 1 1.64212 1.73227 11.7417 0 0 0 
11 4 2 1.63016 1.57148 12.7577 0 0 0 
12 4 2 1.662 2.73357 11.571 0 0 0 
13 5 1 1.62954 1.86094 14.8644 0 0 0 
14 5 2 1.72629 1.5487 15.8078 0 0 0 
15 5 2 1.67866 2.89152 14.8458 0 0 0 
16 6 1 1.56506 1.87113 19.3883 0 0 0 
17 6 2 1.55628 2.78186 19.8488 0 0 0 
18 6 2 1.86131 1.99387 18.4639 0 0 0 
19 7 1 1.63902 1.8192 23.2202 0 0 0 
20 7 2 1.67224 2.84998 23.2623 0 0 0 
21 7 2 1.74061 1.53127 22.2598 0 0 0 
22 8 1 1.65442 1.68281 26.3539 0 0 0 
23 8 2 1.71269 2.67623 26.5448 0 0 0 
24 8 2 1.63098 1.54519 25.3321 0 0 0 
25 9 1 1.78828 1.91315 30.021 0 0 0 
26 9 2 1.68221 2.96228 29.8762 0 0 0 
27 9 2 1.66148 1.45516 29.116 0 0 0 
28 10 1 2.02506 1.66878 32.7683 0 0 0 
29 10 2 2.00288 2.70806 33.043 0 0 0 
30 10 2 1.79887 1.60182 31.7224 0 0 0 
31 11 1 1.59946 0.819152 35.5055 0 0 0 
32 11 2 1.83772 1.58054 36.13 0 0 0 
33 11 2 1.65279 1.15586 34.5287 0 0 0 
34 12 1 1.58843 5.28345 2.46467 0 0 0 
35 12 2 1.36958 6.27994 2.31879 0 0 0 
36 12 2 2.23203 4.98373 1.74468 0 0 0 
37 13 1 2.06327 4.35559 4.901 0 0 0 
38 13 2 1.59419 4.99414 5.53903 0 0 0 
39 13 2 1.83563 4.65767 3.8897 0 0 0 
40 14 1 1.6709 4.48497 8.8474 0 0 0 
41 14 2 1.63663 4.51182 9.89636 0 0 0 
42 14 2 1.6649 5.4325 8.50557 0 0 0 
43 15 1 1.61993 4.91441 11.7706 0 0 0 
44 15 2 1.61363 4.62566 12.7504 0 0 0 
45 15 2 1.57565 5.95039 11.7394 0 0 0 
46 16 1 1.61552 4.89767 15.1232 0 0 0 
47 16 2 1.46939 4.71723 16.0972 0 0 0 
48 16 2 1.63215 5.92834 14.9865 0 0 0 
49 17 1 1.63283 5.03166 19.3261 0 0 0 
50 17 2 1.51852 5.83098 19.9673 0 0 0 
51 17 2 1.87161 5.39684 18.4383 0 0 0 
52 18 1 1.60808 4.89779 22.9635 0 0 0 
53 18 2 1.55936 5.96412 23.0493 0 0 0 
54 18 2 1.65735 4.66868 21.9967 0 0 0 
55 19 1 1.6434 4.95554 26.3717 0 0 0 
56 19 2 1.57392 5.99593 26.3671 0 0 0 
57 19 2 1.63315 4.63358 25.401 0 0 0 
58 20 1 1.66889 4.55008 29.273 0 0 0 
59 20 2 1.60278 5.51397 29.568 0 0 0 
60 20 2 1.64437 4.52531 28.2241 0 0 0 
61 21 1 2.0664 4.27626 33.3142 0 0 0 
62 21 2 1.87927 4.53217 34.3498 0 0 0 
63 21 2 1.63883 4.97973 32.7208 0 0 0 
64 22 1 1.73406 5.18409 35.7737 0 0 0 
65 22 2 2.72798 5.25299 36.0984 0 0 0 
66 22 2 1.27362 6.04435 35.9729 0 0 0 
67 23 1 1.68108 8.61941 2.60848 0 0 0 
68 23 2 1.34827 9.59194 2.56183 0 0 0 
69 23 2 2.66042 8.59297 2.3206 0 0 0 
70 24 1 1.74666 8.69338 5.52112 0 0 0 
71 24 2 1.60653 9.7077 5.59787 0 0 0 
72 24 2 1.60935 8.4121 4.53012 0 0 0 
73 25 1 1.66596 8.58245 8.73323 0 0 0 
74 25 2 1.56383 9.58838 8.91203 0 0 0 
75 25 2 1.61627 8.41996 7.72376 0 0 0 
76 26 1 1.64787 8.03842 11.8978 0 0 0 
77 26 2 1.54595 8.94752 12.3394 0 0 0 
78 26 2 1.67869 8.1665 10.8807 0 0 0 
79 27 1 1.62213 7.96195 15.4278 0 0 0 
80 27 2 1.46831 8.88572 15.8426 0 0 0 
81 27 2 1.99607 8.08566 14.5012 0 0 0 
82 28 1 1.66762 7.95909 19.0765 0 0 0 
83 28 2 1.60059 8.87545 19.5475 0 0 0 
84 28 2 1.63485 8.1165 18.0907 0 0 0 
85 29 1 1.60702 7.67888 22.8672 0 0 0 
86 29 2 2.04442 7.97665 23.7245 0 0 0 
87 29 2 1.47209 8.4924 22.2673 0 0 0 
88 30 1 1.66187 7.99354 26.2992 0 0 0 
89 30 2 1.70961 8.14397 27.3094 0 0 0 
90 30 2 1.52532 8.88653 25.8399 0 0 0 
91 31 1 1.68069 8.53848 29.5166 0 0 0 
92 31 2 1.60138 8.41567 30.5339 0 0 0 
93 31 2 1.56742 9.52906 29.2939 0 0 0 
94 32 1 1.77156 8.73794 32.6472 0 0 0 
95 32 2 1.62265 8.48919 33.6609 0 0 0 
96 32 2 1.61954 9.7412 32.5348 0 0 0 
97 33 1 1.61841 8.72734 35.4795 0 0 0 
98 33 2 2.50092 8.59506 35.9637 0 0 0 
99 33 2 1.33808 9.70671 35.5591 0 0 0 
100 34 1 1.57949 12.1593 2.6397 0 0 0 
101 34 2 1.2576 13.1346 2.70433 0 0 0 
102 34 2 2.29157 12.0992 1.9337 0 0 0 
103 35 1 1.66149 11.8045 5.40127 0 0 0 
104 35 2 1.54342 12.7768 5.68662 0 0 0 
105 35 2 1.67204 11.7674 4.35658 0 0 0 
106 36 1 1.61503 11.7667 8.83297 0 0 0 
107 36 2 1.57236 12.7442 9.12368 0 0 0 
108 36 2 1.70594 11.7273 7.82702 0 0 0 
109 37 1 1.59559 12.1109 12.4974 0 0 0 
110 37 2 1.58752 13.1478 12.5156 0 0 0 
111 37 2 1.65932 11.802 11.5407 0 0 0 
112 38 1 1.73893 11.6669 15.2674 0 0 0 
113 38 2 1.60276 12.5781 15.6903 0 0 0 
114 38 2 1.63003 11.7557 14.2308 0 0 0 
115 39 1 1.66296 10.8152 19.1522 0 0 0 
116 39 2 1.90865 11.3777 19.9561 0 0 0 
117 39 2 1.92587 11.314 18.3118 0 0 0 
118 40 1 1.79142 11.7521 22.879 0 0 0 
119 40 2 1.64703 11.7726 23.9144 0 0 0 
120 40 2 1.58965 12.669 22.5018 0 0 0 
121 41 1 1.59445 12.1292 25.6499 0 0 0 
122 41 2 1.6604 11.809 26.6035 0 0 0 
123 41 2 1.58073 13.1643 25.6428 0 0 0 
124 42 1 1.61608 11.7824 29.313 0 0 0 
125 42 2 1.71662 11.7347 30.3191 0 0 0 
126 42 2 1.56649 12.7591 29.0315 0 0 0 
127 43 1 1.65476 11.7824 32.7351 0 0 0 
128 43 2 1.72813 11.7382 33.7735 0 0 0 
129 43 2 1.52894 12.7537 32.4627 0 0 0 
130 44 1 1.5884 12.1563 35.5467 0 0 0 
131 44 2 2.21584 12.1518 36.3295 0 0 0 
132 44 2 1.23977 13.1126 35.4087 0 0 0 
133 45 1 1.62134 15.6916 2.56162 0 0 0 
134 45 2 1.21486 16.6395 2.70004 0 0 0 
135 45 2 2.29672 15.7443 1.82764 0 0 0 
136 46 1 1.6547 15.4031 5.43273 0 0 0 
137 46 2 1.49062 16.3827 5.68521 0 0 0 
138 46 2 1.75741 15.3433 4.40731 0 0 0 
139 47 1 1.6163 15.4792 8.91404 0 0 0 
140 47 2 1.55882 16.5057 9.01876 0 0 0 
141 47 2 1.67396 15.2579 7.92864 0 0 0 
142 48 1 1.63298 15.1756 12.1507 0 0 0 
143 48 2 1.55976 16.1377 12.4987 0 0 0 
144 48 2 1.60755 15.1936 11.1335 0 0 0 
145 49 1 1.58199 15.3555 15.7823 0 0 0 
146 49 2 1.67866 16.3787 15.8857 0 0 0 
147 49 2 1.78449 15.1044 14.8328 0 0 0 
148 50 1 2.31245 14.9009 19.0343 0 0 0 
149 50 2 1.74924 15.0375 19.87 0 0 0 
150 50 2 1.73754 15.0415 18.2046 0 0 0 
151 51 1 1.58289 15.3304 22.4211 0 0 0 
152 51 2 1.74407 15.103 23.3864 0 0 0 
153 51 2 1.6816 16.3449 22.2962 0 0 0 
154 52 1 1.62087 15.1836 25.977 0 0 0 
155 52 2 1.61519 15.1792 26.9954 0 0 0 
156 52 2 1.56657 16.1525 25.6524 0 0 0 
157 53 1 1.61175 15.4674 29.2358 0 0 0 
158 53 2 1.68909 15.2455 30.2211 0 0 0 
159 53 2 1.55396 16.4915 29.1323 0 0 0 
160 54 1 1.65245 15.393 32.7086 0 0 0 
161 54 2 1.81523 15.3297 33.7219 0 0 0 
162 54 2 1.46504 16.3706 32.4698 0 0 0 
163 55 1 1.62004 15.6858 35.6228 0 0 0 
164 55 2 2.26542 15.7838 36.3769 0 0 0 
165 55 2 1.19965 16.6161 35.4325 0 0 0 
166 56 1 1.67704 18.8756 2.39681 0 0 0 
167 56 2 1.15178 19.6803 2.76722 0 0 0 
168 56 2 2.31214 19.2234 1.6925 0 0 0 
169 57 1 1.686 18.7629 5.43827 0 0 0 
170 57 2 1.56324 19.8213 5.58608 0 0 0 
171 57 2 2.0679 18.6209 4.51084 0 0 0 
172 58 1 1.65468 18.5743 8.65113 0 0 0 
173 58 2 1.657 19.5488 8.93285 0 0 0 
174 58 2 1.66961 18.5369 7.6198 0 0 0 
175 59 1 1.61168 18.6015 12.1949 0 0 0 
176 59 2 1.56032 19.5998 12.3422 0 0 0 
177 59 2 1.70074 18.4226 11.2023 0 0 0 
178 60 1 1.9116 18.3646 15.6354 0 0 0 
179 60 2 2.91132 18.7047 15.6949 0 0 0 
180 60 2 1.57527 18.5076 14.6993 0 0 0 
181 61 1 2.15769 18.8253 19.0297 0 0 0 
182 61 2 1.60106 18.6286 19.8534 0 0 0 
183 61 2 1.61757 18.6242 18.1961 0 0 0 
184 62 1 1.92427 18.4303 22.556 0 0 0 
185 62 2 1.62955 18.4938 23.5182 0 0 0 
186 62 2 2.94192 18.7067 22.4909 0 0 0 
187 63 1 1.61358 18.6115 25.9409 0 0 0 
188 63 2 1.7125 18.3953 26.926 0 0 0 
189 63 2 1.54656 19.6134 25.8335 0 0 0 
190 64 1 1.65108 18.5641 29.4923 0 0 0 
191 64 2 1.6694 18.5205 30.5228 0 0 0 
192 64 2 1.65665 19.5392 29.216 0 0 0 
193 65 1 1.67233 18.7634 32.7031 0 0 0 
194 65 2 2.20558 18.6154 33.5469 0 0 0 
195 65 2 1.52226 19.8195 32.5867 0 0 0 
196 66 1 1.68057 18.8481 35.8082 0 0 0 
197 66 2 2.28219 19.2774 36.4973 0 0 0 
198 66 2 1.13927 19.5923 35.3589 0 0 0 
199 67 1 1.60777 22.0633 2.07107 0 0 0 
200 67 2 1.08261 22.6354 2.70649 0 0 0 
201 67 2 2.00906 22.6691 1.36391 0 0 0 
202 68 1 1.62227 21.4842 5.62488 0 0 0 
203 68 2 1.5087 21.8551 6.5889 0 0 0 
204 68 2 1.97254 22.2287 5.02854 0 0 0 
205 69 1 1.64354 22.4519 8.49257 0 0 0 
206 69 2 1.64053 22.3139 9.5137 0 0 0 
207 69 2 1.58305 23.4548 8.29801 0 0 0 
208 70 1 1.63425 22.6453 11.6775 0 0 0 
209 70 2 1.76221 22.4074 12.6514 0 0 0 
210 70 2 1.56196 23.6761 11.5943 0 0 0 
211 71 1 2.08436 22.8651 15.3051 0 0 0 
212 71 2 1.67181 22.4783 16.1561 0 0 0 
213 71 2 1.80187 23.8429 15.2074 0 0 0 
214 72 1 2.01602 22.5475 18.7719 0 0 0 
215 72 2 2.10909 22.899 19.7018 0 0 0 
216 72 2 2.90623 22.1282 18.5058 0 0 0 
217 73 1 2.17085 22.9157 22.8612 0 0 0 
218 73 2 1.84613 23.899 22.903 0 0 0 
219 73 2 1.5523 22.3828 22.2646 0 0 0 
220 74 1 1.62626 22.6424 26.4951 0 0 0 
221 74 2 1.55183 23.6732 26.5758 0 0 0 
222 74 2 1.84877 22.4092 25.5401 0 0 0 
223 75 1 1.63662 22.4317 29.6761 0 0 0 
224 75 2 1.58449 23.4321 29.8677 0 0 0 
225 75 2 1.64144 22.2911 28.6539 0 0 0 
226 76 1 1.60047 21.499 32.5601 0 0 0 
227 76 2 2.05896 22.2236 33.1012 0 0 0 
228 76 2 1.49475 21.8312 31.5804 0 0 0 
229 77 1 1.65848 22.13 36.1116 0 0 0 
230 77 2 1.89679 22.8728 36.7697 0 0 0 
231 77 2 1.1025 22.5288 35.3826 0 0 0 
232 78 1 1.67478 25.0883 2.11497 0 0 0 
233 78 2 1.45735 25.5187 3.01342 0 0 0 
234 78 2 1.92424 25.8114 1.45533 0 0 0 
235 79 1 1.82625 25.6644 5.32954 0 0 0 
236 79 2 1.64683 25.4407 6.31342 0 0 0 
237 79 2 1.7271 26.73 5.20567 0 0 0 
238 80 1 1.63036 25.7469 8.28387 0 0 0 
239 80 2 1.70167 25.6476 9.28732 0 0 0 
240 80 2 1.66137 26.7467 8.04802 0 0 0 
241 81 1 1.62138 25.598 11.8811 0 0 0 
242 81 2 1.72406 25.602 12.894 0 0 0 
243 81 2 1.59921 26.5582 11.5503 0 0 0 
244 82 1 1.72586 25.8992 15.2177 0 0 0 
245 82 2 1.53246 25.7212 16.1884 0 0 0 
246 82 2 1.58864 26.9073 15.0259 0 0 0 
247 83 1 1.63649 26.7686 19.4107 0 0 0 
248 83 2 1.59818 27.741 19.7522 0 0 0 
249 83 2 1.60974 26.7883 18.4312 0 0 0 
250 84 1 1.67555 25.8493 22.8108 0 0 0 
251 84 2 1.58018 26.8246 23.123 0 0 0 
252 84 2 1.59049 25.826 21.7919 0 0 0 
253 85 1 1.61656 25.6182 26.3045 0 0 0 
254 85 2 1.59817 26.5895 26.6031 0 0 0 
255 85 2 1.72454 25.5894 25.2934 0 0 0 
256 86 1 1.63498 25.801 29.892 0 0 0 
257 86 2 1.69724 26.8104 30.036 0 0 0 
258 86 2 1.6985 25.6097 28.8984 0 0 0 
259 87 1 1.75225 25.8587 32.9774 0 0 0 
260 87 2 1.73716 26.923 33.0667 0 0 0 
261 87 2 1.60594 25.611 31.9929 0 0 0 
262 88 1 1.6774 25.1541 36.0034 0 0 0 
263 88 2 1.77921 25.96 36.613 0 0 0 
264 88 2 1.51148 25.4772 35.0465 0 0 0 
265 89 1 1.91799 28.963 2.29571 0 0 0 
266 89 2 1.1307 29.5794 2.26585 0 0 0 
267 89 2 2.43415 29.0475 1.42962 0 0 0 
268 90 1 1.73792 28.3325 5.27214 0 0 0 
269 90 2 1.76748 28.9924 6.04053 0 0 0 
270 90 2 2.10633 28.7788 4.42229 0 0 0 
271 91 1 1.72246 29.1909 8.68417 0 0 0 
272 91 2 1.70559 29.0851 9.7155 0 0 0 
273 91 2 1.55035 30.1593 8.45214 0 0 0 
274 92 1 1.69973 29.309 11.5713 0 0 0 
275 92 2 2.24724 29.063 12.3818 0 0 0 
276 92 2 1.42748 30.2927 11.6433 0 0 0 
277 93 1 1.6653 29.1838 15.3277 0 0 0 
278 93 2 1.98478 29.4115 16.2399 0 0 0 
279 93 2 1.42193 30.0592 14.8465 0 0 0 
280 94 1 1.56225 29.5908 19.3787 0 0 0 
281 94 2 1.55033 30.4271 19.9724 0 0 0 
282 94 2 1.5154 29.9113 18.4275 0 0 0 
283 95 1 1.70819 29.2499 22.8534 0 0 0 
284 95 2 1.53083 30.2111 23.1794 0 0 0 
285 95 2 1.78049 29.2643 21.8506 0 0 0 
286 96 1 1.68992 29.3322 26.5691 0 0 0 
287 96 2 1.42392 30.3179 26.5177 0 0 0 
288 96 2 2.11674 29.0686 25.6899 0 0 0 
289 97 1 1.73365 29.2562 29.5477 0 0 0 
290 97 2 1.58892 30.2447 29.7352 0 0 0 
291 97 2 1.71582 29.1077 28.5202 0 0 0 
292 98 1 1.91757 28.5454 32.9572 0 0 0 
293 98 2 2.92267 28.8967 33.0193 0 0 0 
294 98 2 1.44746 29.0379 32.2016 0 0 0 
295 99 1 2.05217 28.9841 36.4569 0 0 0 
296 99 2 3.02402 29.2257 36.2465 0 0 0 
297 99 2 1.48642 29.1434 35.6229 0 0 0 
298 100 1 1.82898 33.1168 2.81752 0 0 0 
299 100 2 1.45958 34.0541 2.5601 0 0 0 
300 100 2 2.63568 32.9033 2.23376 0 0 0 
301 101 1 1.78983 33.2141 5.61296 0 0 0 
302 101 2 1.69304 34.2594 5.58499 0 0 0 
303 101 2 1.66187 32.8524 4.6359 0 0 0 
304 102 1 1.65859 32.8854 8.58637 0 0 0 
305 102 2 1.61101 33.9006 8.79258 0 0 0 
306 102 2 1.63957 32.7591 7.55616 0 0 0 
307 103 1 1.60284 32.9103 12.2245 0 0 0 
308 103 2 1.59723 33.9465 12.3732 0 0 0 
309 103 2 1.70419 32.7286 11.2326 0 0 0 
310 104 1 1.63312 32.6621 15.3334 0 0 0 
311 104 2 1.57392 33.6206 15.688 0 0 0 
312 104 2 1.63609 32.6881 14.3086 0 0 0 
313 105 1 1.58056 32.3789 19.0541 0 0 0 
314 105 2 1.64325 33.0836 19.7779 0 0 0 
315 105 2 1.63874 32.8339 18.1572 0 0 0 
316 106 1 1.62585 32.5352 22.919 0 0 0 
317 106 2 1.60722 32.6063 23.9419 0 0 0 
318 106 2 1.58128 33.4836 22.5235 0 0 0 
319 107 1 1.5994 32.8818 25.964 0 0 0 
320 107 2 1.70861 32.7334 26.958 0 0 0 
321 107 2 1.59885 33.9085 25.7792 0 0 0 
322 108 1 1.66145 32.8366 29.6628 0 0 0 
323 108 2 1.64532 32.7773 30.7044 0 0 0 
324 108 2 1.61504 33.8369 29.3924 0 0 0 
325 109 1 1.79935 33.2067 32.5348 0 0 0 
326 109 2 1.67949 32.86 33.5226 0 0 0 
327 109 2 1.69703 34.25 32.5479 0 0 0 
328 110 1 1.87653 33.1993 35.3179 0 0 0 
329 110 2 2.637 32.9305 35.9432 0 0 0 
330 110 2 1.48358 34.1053 35.6314 0 0 0 
331 111 1 1.64807 36.0305 2.49562 0 0 0 
332 111 2 1.42888 37.08 2.48411 0 0 0 
333 111 2 2.472 35.8733 1.92491 0 0 0 
334 112 1 1.61941 35.938 5.26223 0 0 0 
335 112 2 1.63139 36.9206 5.45878 0 0 0 
336 112 2 1.58504 35.8164 4.19983 0 0 0 
337 113 1 1.64841 35.6936 8.6293 0 0 0 
338 113 2 2.01829 36.5998 8.82536 0 0 0 
339 113 2 1.58453 35.5759 7.60269 0 0 0 
340 114 1 1.60905 35.7588 12.1862 0 0 0 
341 114 2 1.76408 36.7475 12.3616 0 0 0 
342 114 2 1.5527 35.6139 11.1759 0 0 0 
343 115 1 1.55802 35.9002 15.4813 0 0 0 
344 115 2 1.78701 36.8738 15.5531 0 0 0 
345 115 2 1.56179 35.6366 14.4984 0 0 0 
346 116 1 1.9052 35.5163 18.9327 0 0 0 
347 116 2 1.57627 36.1083 19.6864 0 0 0 
348 116 2 1.55224 35.8678 18.051 0 0 0 
349 117 1 1.59583 35.7285 22.8013 0 0 0 
350 117 2 1.57039 35.6327 23.8174 0 0 0 
351 117 2 1.72234 36.6993 22.5697 0 0 0 
352 118 1 1.60582 35.7932 25.9456 0 0 0 
353 118 2 1.56142 35.6445 26.9533 0 0 0 
354 118 2 1.73988 36.7887 25.7715 0 0 0 
355 119 1 1.65447 35.6638 29.5219 0 0 0 
356 119 2 1.59904 35.585 30.5494 0 0 0 
357 119 2 1.95457 36.5885 29.2858 0 0 0 
358 120 1 1.61911 35.9328 32.9003 0 0 0 
359 120 2 1.58361 35.8228 33.9631 0 0 0 
360 120 2 1.61126 36.9126 32.6919 0 0 0 
361 121 1 1.71594 36.1005 35.6813 0 0 0 
362 121 2 2.67784 36.0197 36.0113 0 0 0 
363 121 2 1.43681 37.1388 35.7151 0 0 0 
364 122 1 4.8828 1.17383 2.13377 0 0 0 
365 122 2 4.96489 1.23471 3.15469 0 0 0 
366 122 2 5.81989 1.23009 1.72414 0 0 0 
367 123 1 4.63883 0.942576 5.08729 0 0 0 
368 123 2 5.13332 1.36245 5.87406 0 0 0 
369 123 2 3.60565 1.20982 5.14682 0 0 0 
370 124 1 4.72345 0.871984 9.12649 0 0 0 
371 124 2 4.91466 1.13362 10.1193 0 0 0 
372 124 2 4.0371 1.52529 8.74396 0 0 0 
373 125 1 4.85497 1.50409 12.1096 0 0 0 
374 125 2 4.87073 1.351 13.1274 0 0 0 
375 125 2 4.8577 2.5438 11.9358 0 0 0 
376 126 1 4.80201 1.64601 15.1983 0 0 0 
377 126 2 4.97482 1.36158 16.131 0 0 0 
378 126 2 4.79713 2.68445 15.1671 0 0 0 
379 127 1 4.6924 2.02287 19.6009 0 0 0 
380 127 2 4.78169 3.03845 19.833 0 0 0 
381 127 2 5.16594 1.84581 18.7677 0 0 0 
382 128 1 4.85458 1.67349 22.8731 0 0 0 
383 128 2 4.846 2.71461 22.9987 0 0 0 
384 128 2 4.85923 1.47564 21.8773 0 0 0 
385 129 1 4.87116 1.38962 26.0324 0 0 0 
386 129 2 4.88085 2.43981 26.2555 0 0 0 
387 129 2 4.87603 1.28877 25.0067 0 0 0 
388 130 1 4.78711 0.937506 28.9777 0 0 0 
389 130 2 4.31744 1.75188 29.363 0 0 0 
390 130 2 4.92085 1.09031 27.9475 0 0 0 
391 131 1 4.61007 0.96809 33.0126 0 0 0 
392 131 2 3.56703 1.20086 32.9705 0 0 0 
393 131 2 5.06147 1.33448 32.1721 0 0 0 
394 132 1 4.89734 1.00862 35.9068 0 0 0 
395 132 2 5.79287 1.32852 36.2747 0 0 0 
396 132 2 4.89835 1.1351 34.8736 0 0 0 
397 133 1 4.73843 5.43662 2.06534 0 0 0 
398 133 2 5.31133 5.93164 2.71705 0 0 0 
399 133 2 5.25321 4.63344 1.73031 0 0 0 
400 134 1 5.41086 5.25059 5.02966 0 0 0 
401 134 2 5.13527 6.15578 5.38494 0 0 0 
402 134 2 4.5491 4.70693 4.7766 0 0 0 
403 135 1 4.98734 5.15068 9.10648 0 0 0 
404 135 2 4.82142 6.17437 9.0411 0 0 0 
405 135 2 4.86945 4.73508 8.19543 0 0 0 
406 136 1 4.84695 4.32827 11.7941 0 0 0 
407 136 2 4.74597 5.22471 12.2519 0 0 0 
408 136 2 4.93 4.49477 10.7597 0 0 0 
409 137 1 4.85657 4.60851 15.7003 0 0 0 
410 137 2 4.7603 5.5483 16.1309 0 0 0 
411 137 2 4.96769 4.72884 14.7197 0 0 0 
412 138 1 4.87329 4.96378 19.5772 0 0 0 
413 138 2 4.86882 6.04556 19.6539 0 0 0 
414 138 2 4.95694 4.73436 18.6335 0 0 0 
415 139 1 4.86376 4.52185 22.4454 0 0 0 
416 139 2 4.83802 5.44466 22.9024 0 0 0 
417 139 2 4.80943 4.66458 21.4208 0 0 0 
418 140 1 4.84776 4.06738 26.4103 0 0 0 
419 140 2 4.90423 4.51239 27.3458 0 0 0 
420 140 2 4.75339 4.79111 25.7056 0 0 0 
421 141 1 5.03346 5.05488 29.2495 0 0 0 
422 141 2 4.88492 4.72281 30.1872 0 0 0 
423 141 2 4.76609 6.04373 29.193 0 0 0 
424 142 1 5.49548 5.27365 33.0796 0 0 0 
425 142 2 4.67837 4.72118 33.4244 0 0 0 
426 142 2 5.17403 6.1891 32.7759 0 0 0 
427 143 1 4.617 5.43879 36.0358 0 0 0 
428 143 2 5.29627 4.74889 36.3374 0 0 0 
429 143 2 5.09981 6.12779 35.4568 0 0 0 
430 144 1 4.54201 8.79856 2.40825 0 0 0 
431 144 2 4.91381 9.76734 2.59874 0 0 0 
432 144 2 5.25092 8.27189 1.97497 0 0 0 
433 145 1 5.0936 8.348 5.254 0 0 0 
434 145 2 4.82807 9.23745 5.66868 0 0 0 
435 145 2 4.62577 8.26708 4.33097 0 0 0 
436 146 1 4.85185 8.17124 8.8254 0 0 0 
437 146 2 4.8467 9.12969 9.17639 0 0 0 
438 146 2 4.76725 8.19572 7.82057 0 0 0 
439 147 1 4.87504 8.39007 12.3847 0 0 0 
440 147 2 4.85885 9.416 12.4313 0 0 0 
441 147 2 4.88962 8.10587 11.4114 0 0 0 
442 148 1 4.83553 7.98355 15.3962 0 0 0 
443 148 2 4.81961 8.93243 15.7603 0 0 0 
444 148 2 4.96873 8.02296 14.375 0 0 0 
445 149 1 4.9019 7.71048 19.1242 0 0 0 
446 149 2 4.692 8.41811 19.8247 0 0 0 
447 149 2 4.77678 8.12731 18.2078 0 0 0 
448 150 1 4.84835 7.8528 22.9618 0 0 0 
449 150 2 4.94596 8.02357 23.9873 0 0 0 
450 150 2 4.83366 8.73889 22.4844 0 0 0 
451 151 1 4.90408 8.51847 25.743 0 0 0 
452 151 2 4.87714 8.15686 26.6917 0 0 0 
453 151 2 4.85282 9.54801 25.775 0 0 0 
454 152 1 4.85782 8.27585 29.248 0 0 0 
455 152 2 4.62782 8.23365 30.2272 0 0 0 
456 152 2 4.86506 9.24909 28.9567 0 0 0 
457 153 1 5.16587 8.33005 32.9493 0 0 0 
458 153 2 4.73077 8.29441 33.8919 0 0 0 
459 153 2 4.8496 9.18608 32.4809 0 0 0 
460 154 1 4.66486 8.75754 35.7054 0 0 0 
461 154 2 5.3978 8.39529 36.2705 0 0 0 
462 154 2 4.84629 9.77682 35.5298 0 0 0 
463 155 1 4.67623 12.245 2.4766 0 0 0 
464 155 2 4.60495 13.2477 2.72843 0 0 0 
465 155 2 5.51614 12.1069 1.94441 0 0 0 
466 156 1 4.93495 11.8486 5.36347 0 0 0 
467 156 2 4.82381 12.8244 5.66153 0 0 0 
468 156 2 4.68066 11.776 4.37708 0 0 0 
469 157 1 4.847 11.7988 8.8894 0 0 0 
470 157 2 4.85357 12.8028 9.08461 0 0 0 
471 157 2 4.86764 11.6593 7.88836 0 0 0 
472 158 1 4.79193 11.6993 12.2082 0 0 0 
473 158 2 4.89784 12.6666 12.5232 0 0 0 
474 158 2 4.79416 11.683 11.1913 0 0 0 
475 159 1 5.12921 11.8841 15.4303 0 0 0 
476 159 2 4.79528 12.8186 15.7169 0 0 0 
477 159 2 4.69824 11.6416 14.5429 0 0 0 
478 160 1 4.86366 10.9074 19.0871 0 0 0 
479 160 2 5.22779 11.3563 19.9196 0 0 0 
480 160 2 5.27711 11.3465 18.2742 0 0 0 
481 161 1 5.17836 11.9442 22.7113 0 0 0 
482 161 2 4.69287 11.6108 23.5389 0 0 0 
483 161 2 4.79692 12.8697 22.4527 0 0 0 
484 162 1 4.79099 11.6668 25.9694 0 0 0 
485 162 2 4.79588 11.6896 26.986 0 0 0 
486 162 2 4.87963 12.6218 25.6169 0 0 0 
487 163 1 4.84777 11.7888 29.2767 0 0 0 
488 163 2 4.86373 11.6554 30.2815 0 0 0 
489 163 2 4.84591 12.7904 29.0762 0 0 0 
490 164 1 4.90377 11.8351 32.7786 0 0 0 
491 164 2 4.73978 11.7807 33.7922 0 0 0 
492 164 2 4.82892 12.8104 32.4859 0 0 0 
493 165 1 4.703 12.2237 35.6144 0 0 0 
494 165 2 5.36287 12.135 36.3648 0 0 0 
495 165 2 4.61161 13.2204 35.3695 0 0 0 
496 166 1 4.73644 15.7401 2.4513 0 0 0 
497 166 2 4.41891 16.6851 2.64155 0 0 0 
498 166 2 5.6146 15.7906 1.9142 0 0 0 
499 167 1 4.9041 15.2459 5.29923 0 0 0 
500 167 2 4.81225 16.1911 5.68383 0 0 0 
501 167 2 4.82609 15.3023 4.27685 0 0 0 
502 168 1 4.85484 15.1927 8.86811 0 0 0 
503 168 2 4.88403 16.1837 9.10346 0 0 0 
504 168 2 4.85154 15.0985 7.86322 0 0 0 
505 169 1 4.91103 15.1655 12.2931 0 0 0 
506 169 2 4.83498 16.1534 12.5159 0 0 0 
507 169 2 4.79651 15.0469 11.29 0 0 0 
508 170 1 4.8073 14.8386 15.4628 0 0 0 
509 170 2 5.5343 15.3584 15.9133 0 0 0 
510 170 2 4.94088 14.9041 14.434 0 0 0 
511 171 1 5.242 15.0244 19.0395 0 0 0 
512 171 2 4.71881 14.9959 19.909 0 0 0 
513 171 2 4.57705 14.987 18.272 0 0 0 
514 172 1 4.8304 14.8513 22.6618 0 0 0 
515 172 2 4.86502 14.909 23.7042 0 0 0 
516 172 2 5.62344 15.333 22.2882 0 0 0 
517 173 1 4.8766 15.1842 25.8252 0 0 0 
518 173 2 4.81092 15.036 26.8286 0 0 0 
519 173 2 4.89212 16.1827 25.6432 0 0 0 
520 174 1 4.84226 15.1737 29.2855 0 0 0 
521 174 2 4.88733 15.0839 30.291 0 0 0 
522 174 2 4.88909 16.16 29.0434 0 0 0 
523 175 1 4.89098 15.2364 32.8613 0 0 0 
524 175 2 4.85939 15.3024 33.8897 0 0 0 
525 175 2 4.80911 16.177 32.4739 0 0 0 
526 176 1 4.73924 15.7468 35.6864 0 0 0 
527 176 2 5.54701 15.806 36.3186 0 0 0 
528 176 2 4.4205 16.6872 35.4815 0 0 0 
529 177 1 4.81238 19.0743 2.43876 0 0 0 
530 177 2 4.42975 20.0009 2.6224 0 0 0 
531 177 2 5.65534 19.1908 1.84593 0 0 0 
532 178 1 4.93863 18.6792 5.25668 0 0 0 
533 178 2 4.82698 19.703 5.51099 0 0 0 
534 178 2 4.93621 18.611 4.2243 0 0 0 
535 179 1 4.97507 19.019 8.72709 0 0 0 
536 179 2 4.90879 20.0849 8.86238 0 0 0 
537 179 2 4.76494 18.8067 7.75688 0 0 0 
538 180 1 4.90361 18.8062 11.9975 0 0 0 
539 180 2 4.83066 19.7989 12.1703 0 0 0 
540 180 2 4.87342 18.6467 10.9904 0 0 0 
541 181 1 4.618 19.0358 15.3878 0 0 0 
542 181 2 5.47623 18.9441 15.9451 0 0 0 
543 181 2 4.81033 18.6782 14.4497 0 0 0 
544 182 1 5.10238 18.8351 19.0377 0 0 0 
545 182 2 4.51769 18.8115 19.8524 0 0 0 
546 182 2 4.5185 18.6647 18.23 0 0 0 
547 183 1 4.63377 19.0547 22.7961 0 0 0 
548 183 2 4.8104 18.6587 23.7192 0 0 0 
549 183 2 5.48433 18.9429 22.2306 0 0 0 
550 184 1 4.89625 18.7629 26.1616 0 0 0 
551 184 2 4.87182 18.6117 27.1717 0 0 0 
552 184 2 4.83544 19.7537 25.9812 0 0 0 
553 185 1 4.95649 19.0193 29.4067 0 0 0 
554 185 2 4.76527 18.7953 30.3793 0 0 0 
555 185 2 4.88957 20.0841 29.2851 0 0 0 
556 186 1 4.8752 18.6712 32.8946 0 0 0 
557 186 2 4.97833 18.5995 33.9241 0 0 0 
558 186 2 4.77088 19.6951 32.6523 0 0 0 
559 187 1 4.82543 19.0592 35.7172 0 0 0 
560 187 2 5.69279 19.1838 36.28 0 0 0 
561 187 2 4.43609 19.9768 35.543 0 0 0 
562 188 1 4.77155 22.0522 2.19822 0 0 0 
563 188 2 4.2046 22.8979 2.32361 0 0 0 
564 188 2 5.60321 22.3114 1.68105 0 0 0 
565 189 1 4.91215 21.3564 5.45538 0 0 0 
566 189 2 4.73655 21.9753 6.23321 0 0 0 
567 189 2 5.13735 21.9243 4.62733 0 0 0 
568 190 1 4.88203 21.6755 9.11891 0 0 0 
569 190 2 4.82854 21.8936 10.1575 0 0 0 
570 190 2 4.86434 22.553 8.60751 0 0 0 
571 191 1 4.84296 22.4113 11.7452 0 0 0 
572 191 2 4.87127 22.2166 12.7347 0 0 0 
573 191 2 4.94127 23.4218 11.6056 0 0 0 
574 192 1 5.38907 22.7079 15.5345 0 0 0 
575 192 2 4.5809 22.1354 15.8092 0 0 0 
576 192 2 5.06731 23.6478 15.329 0 0 0 
577 193 1 4.83949 22.5788 18.952 0 0 0 
578 193 2 5.22899 22.6243 19.8843 0 0 0 
579 193 2 5.61261 22.4809 18.2962 0 0 0 
580 194 1 5.34041 22.744 22.5286 0 0 0 
581 194 2 5.03045 23.6775 22.8007 0 0 0 
582 194 2 4.51481 22.1482 22.401 0 0 0 
583 195 1 4.8199 22.4458 26.4324 0 0 0 
584 195 2 4.937 23.4585 26.553 0 0 0 
585 195 2 4.95626 22.2186 25.4605 0 0 0 
586 196 1 4.87127 21.6842 29.0462 0 0 0 
587 196 2 4.9003 22.563 29.5517 0 0 0 
588 196 2 4.80969 21.8994 28.0061 0 0 0 
589 197 1 4.87832 21.3499 32.6924 0 0 0 
590 197 2 5.18993 21.9245 33.4868 0 0 0 
591 197 2 4.77601 21.9434 31.8831 0 0 0 
592 198 1 4.78106 22.0395 35.9819 0 0 0 
593 198 2 5.53963 22.4634 36.5146 0 0 0 
594 198 2 4.07161 22.7462 35.8349 0 0 0 
595 199 1 5.02843 24.9359 1.91843 0 0 0 
596 199 2 4.54382 25.6122 2.49812 0 0 0 
597 199 2 5.94578 25.3062 1.67447 0 0 0 
598 200 1 4.99541 25.2866 5.82846 0 0 0 
599 200 2 4.96897 25.4473 6.85331 0 0 0 
600 200 2 4.15256 25.6872 5.40878 0 0 0 
601 201 1 4.96635 25.8126 8.60762 0 0 0 
602 201 2 4.82249 25.6326 9.59112 0 0 0 
603 201 2 4.92152 26.8861 8.44334 0 0 0 
604 202 1 4.90787 25.9337 11.9032 0 0 0 
605 202 2 4.99058 25.6701 12.8755 0 0 0 
606 202 2 4.84232 26.9741 11.8489 0 0 0 
607 203 1 5.14314 25.9473 15.1824 0 0 0 
608 203 2 4.45483 25.7154 15.885 0 0 0 
609 203 2 4.9947 26.9129 14.8778 0 0 0 
610 204 1 5.06149 26.7443 19.3658 0 0 0 
611 204 2 4.96423 27.6947 19.7078 0 0 0 
612 204 2 4.96495 26.7589 18.3782 0 0 0 
613 205 1 5.14852 25.9576 22.9499 0 0 0 
614 205 2 5.00002 26.9309 23.2251 0 0 0 
615 205 2 4.61651 25.7756 22.0938 0 0 0 
616 206 1 4.8978 25.9229 26.2611 0 0 0 
617 206 2 4.85312 26.9545 26.3657 0 0 0 
618 206 2 4.97557 25.704 25.2756 0 0 0 
619 207 1 4.93382 25.7859 29.62 0 0 0 
620 207 2 4.91189 26.8682 29.7081 0 0 0 
621 207 2 4.83904 25.5458 28.6451 0 0 0 
622 208 1 4.97053 25.3458 32.3944 0 0 0 
623 208 2 4.22877 25.914 32.7846 0 0 0 
624 208 2 4.96075 25.4427 31.3554 0 0 0 
625 209 1 5.10304 24.9726 36.2785 0 0 0 
626 209 2 6.03271 25.3737 36.4074 0 0 0 
627 209 2 4.6159 25.4914 35.555 0 0 0 
628 210 1 5.11301 29.6489 2.4822 0 0 0 
629 210 2 4.87646 30.6146 2.24624 0 0 0 
630 210 2 5.96483 29.3922 1.97972 0 0 0 
631 211 1 4.71704 29.4347 5.40999 0 0 0 
632 211 2 5.3157 30.2355 5.50546 0 0 0 
633 211 2 4.69388 29.1625 4.40213 0 0 0 
634 212 1 4.86652 28.4492 8.23214 0 0 0 
635 212 2 4.77328 29.2745 8.80884 0 0 0 
636 212 2 4.65173 28.7066 7.24544 0 0 0 
637 213 1 4.71345 28.7046 12.5132 0 0 0 
638 213 2 4.87142 29.0379 13.5024 0 0 0 
639 213 2 4.89666 29.4745 11.8794 0 0 0 
640 214 1 4.95063 29.4903 15.1934 0 0 0 
641 214 2 4.58068 29.254 16.0939 0 0 0 
642 214 2 5.01461 30.5572 15.1258 0 0 0 
643 215 1 4.80235 29.5794 19.2606 0 0 0 
644 215 2 4.72531 30.3045 19.977 0 0 0 
645 215 2 5.02123 30.0419 18.3975 0 0 0 
646 216 1 4.99009 29.452 22.951 0 0 0 
647 216 2 5.02589 30.5179 23.0265 0 0 0 
648 216 2 4.51845 29.2128 22.0926 0 0 0 
649 217 1 4.7721 28.8248 25.685 0 0 0 
650 217 2 4.87219 29.6836 26.2147 0 0 0 
651 217 2 4.87954 29.0509 24.6632 0 0 0 
652 218 1 4.82215 28.4287 29.7142 0 0 0 
653 218 2 4.30477 28.8236 30.5028 0 0 0 
654 218 2 4.89996 29.1291 28.9934 0 0 0 
655 219 1 4.47768 29.3858 33.0713 0 0 0 
656 219 2 4.65822 29.289 34.1101 0 0 0 
657 219 2 5.2556 29.8826 32.6588 0 0 0 
658 220 1 4.84157 29.6778 35.8423 0 0 0 
659 220 2 5.66457 29.3044 36.3326 0 0 0 
660 220 2 4.83452 30.7052 35.9538 0 0 0 
661 221 1 4.87512 33.1056 2.0851 0 0 0 
662 221 2 4.68367 34.0136 2.50785 0 0 0 
663 221 2 5.90179 33.0333 1.9061 0 0 0 
664 222 1 5.0485 33.0067 5.39223 0 0 0 
665 222 2 4.9498 34.0039 5.5912 0 0 0 
666 222 2 4.15063 32.6481 5.06722 0 0 0 
667 223 1 4.90719 33.1737 9.25345 0 0 0 
668 223 2 4.80491 34.1703 9.03416 0 0 0 
669 223 2 4.8405 32.6422 8.38724 0 0 0 
670 224 1 4.87647 33.0244 12.2265 0 0 0 
671 224 2 4.78542 34.0359 12.3189 0 0 0 
672 224 2 4.88873 32.7892 11.2118 0 0 0 
673 225 1 4.90103 32.2908 15.0964 0 0 0 
674 225 2 4.81755 33.1548 15.6263 0 0 0 
675 225 2 4.87079 32.5226 14.0773 0 0 0 
676 226 1 4.80184 32.4176 19.0483 0 0 0 
677 226 2 4.96469 32.9996 19.8512 0 0 0 
678 226 2 4.93298 32.9702 18.2202 0 0 0 
679 227 1 4.90731 32.2631 23.0441 0 0 0 
680 227 2 4.85839 32.473 24.0606 0 0 0 
681 227 2 4.82093 33.1392 22.5305 0 0 0 
682 228 1 4.87935 32.9585 26.0143 0 0 0 
683 228 2 4.89152 32.8042 27.0473 0 0 0 
684 228 2 4.78708 33.9589 25.8412 0 0 0 
685 229 1 4.90238 33.1924 28.9164 0 0 0 
686 229 2 4.85365 32.684 29.7969 0 0 0 
687 229 2 4.80514 34.1949 29.1116 0 0 0 
688 230 1 5.01947 33.0516 32.7356 0 0 0 
689 230 2 4.10349 32.6912 32.9977 0 0 0 
690 230 2 4.94326 34.0621 32.5842 0 0 0 
691 231 1 4.87478 33.0797 36.098 0 0 0 
692 231 2 5.90965 33.0658 36.2824 0 0 0 
693 231 2 4.63757 33.9642 35.6649 0 0 0 
694 232 1 4.65404 36.2452 2.4872 0 0 0 
695 232 2 4.38859 37.2598 2.46696 0 0 0 
696 232 2 5.46992 36.119 1.91772 0 0 0 
697 233 1 4.9068 36.2116 5.37274 0 0 0 
698 233 2 4.81973 37.2555 5.3757 0 0 0 
699 233 2 4.80766 35.8915 4.39201 0 0 0 
700 234 1 4.85125 36.2022 8.57464 0 0 0 
701 234 2 4.82961 37.2525 8.7721 0 0 0 
702 234 2 4.84354 36.0601 7.55775 0 0 0 
703 235 1 4.82313 36.2072 12.0476 0 0 0 
704 235 2 4.84092 37.2296 12.1216 0 0 0 
705 235 2 4.86637 35.9511 11.062 0 0 0 
706 236 1 4.73872 36.2123 15.4018 0 0 0 
707 236 2 4.89627 37.2041 15.3978 0 0 0 
708 236 2 4.8589 35.8588 14.4589 0 0 0 
709 237 1 5.27997 35.7057 18.9371 0 0 0 
710 237 2 4.76949 35.9393 19.7829 0 0 0 
711 237 2 4.66525 35.8394 18.1381 0 0 0 
712 238 1 4.84645 36.0606 22.8037 0 0 0 
713 238 2 4.85499 35.8562 23.8012 0 0 0 
714 238 2 4.84244 37.0618 22.6759 0 0 0 
715 239 1 4.82207 36.182 26.0746 0 0 0 
716 239 2 4.86382 35.9592 27.0653 0 0 0 
717 239 2 4.84416 37.2064 25.9673 0 0 0 
718 240 1 4.85538 36.2554 29.5771 0 0 0 
719 240 2 4.8277 36.1252 30.5901 0 0 0 
720 240 2 4.83107 37.3023 29.3657 0 0 0 
721 241 1 4.89234 36.2336 32.8589 0 0 0 
722 241 2 4.74641 35.9453 33.838 0 0 0 
723 241 2 4.8096 37.2775 32.8173 0 0 0 
724 242 1 4.63001 36.2667 35.8065 0 0 0 
725 242 2 5.56391 36.0429 36.106 0 0 0 
726 242 2 4.51273 37.3363 35.8442 0 0 0 
727 243 1 7.95616 1.03916 2.4195 0 0 0 
728 243 2 7.89721 1.27418 3.4638 0 0 0 
729 243 2 8.90792 1.264 2.09331 0 0 0 
730 244 1 8.04177 1.77936 5.03211 0 0 0 
731 244 2 8.15035 1.56659 6.04991 0 0 0 
732 244 2 8.13269 2.81598 4.89858 0 0 0 
733 245 1 8.05058 1.88113 7.95228 0 0 0 
734 245 2 8.05178 1.45253 8.86836 0 0 0 
735 245 2 8.12315 2.92752 8.07511 0 0 0 
736 246 1 8.11589 1.6561 11.8307 0 0 0 
737 246 2 8.09152 1.53424 12.8483 0 0 0 
738 246 2 8.10136 2.6591 11.6198 0 0 0 
739 247 1 8.0353 1.79098 14.9069 0 0 0 
740 247 2 8.27425 1.48418 15.827 0 0 0 
741 247 2 8.11483 2.81851 14.8654 0 0 0 
742 248 1 7.92679 1.95982 19.3372 0 0 0 
743 248 2 8.05746 2.86085 19.807 0 0 0 
744 248 2 8.34758 2.00845 18.4535 0 0 0 
745 249 1 8.13222 1.76851 23.2087 0 0 0 