LAMMPS (24 Apr 2013)
WARNING: OMP_NUM_THREADS environment is not set. (../comm.cpp:100)
  using 1 OpenMP thread(s) per MPI task
# LAMMPS 2005 MD Simulation Parameters - Generated by XenoView
# Structure file "C:\Users\laflij\Dropbox\Xenoview\34m.lmp"
# Source force field file pcff_d.frc

# Define units and force field
units		real
atom_style	full
boundary	p p p
kspace_style	pppm 0.0001

# Read system data
read_restart	confout-1.data
  orthogonal box = (-56.4764 -15.0604 -15.0604) to (56.4764 15.0604 15.0604)
  1 by 1 by 1 MPI processor grid
  10337 atoms
  6992 bonds
  3950 angles
  900 dihedrals
  404 impropers
  4 = max # of 1-2 neighbors
  6 = max # of 1-3 neighbors
  12 = max # of 1-4 neighbors
  16 = max # of special neighbors

# Write (hopefully folded) structure out
dump            icrd all custom 5 system-2.lammpstrj id mol type x y z ix iy iz
dump_modify     icrd sort id
run             1
WARNING: No fixes defined, atoms won't move (../verlet.cpp:54)
PPPM initialization ...
  G vector (1/distance) = 0.261897
  grid = 45 18 18
  stencil order = 5
  estimated absolute RMS force accuracy = 0.0323096
  estimated relative force accuracy = 9.72995e-05
  using double precision FFTs
  3d grid and FFT values/proc = 31250 14580
Memory usage per processor = 65.3317 Mbytes
Step Temp E_pair E_mol TotEng Press 
  105001    201.38007   -29550.986   -134.26798   -23480.803    17181.423 
  105002    201.38007   -29550.986   -134.26798   -23480.803    17181.423 
Loop time of 0.126191 on 1 procs (1 MPI x 1 OpenMP) for 1 steps with 10337 atoms

Pair  time (%) = 0.115369 (91.4242)
Bond  time (%) = 0.002249 (1.78222)
Kspce time (%) = 0.00818801 (6.48859)
Neigh time (%) = 0 (0)
Comm  time (%) = 0.000253916 (0.201216)
Outpt time (%) = 7.41482e-05 (0.0587587)
Other time (%) = 5.67436e-05 (0.0449665)

FFT time (% of Kspce) = 0.00196073 (23.9464)
FFT Gflps 3d (1d only) = 1.42584 2.13767

Nlocal:    10337 ave 10337 max 10337 min
Histogram: 1 0 0 0 0 0 0 0 0 0
Nghost:    30160 ave 30160 max 30160 min
Histogram: 1 0 0 0 0 0 0 0 0 0
Neighs:    3.76883e+06 ave 3.76883e+06 max 3.76883e+06 min
Histogram: 1 0 0 0 0 0 0 0 0 0

Total # of neighbors = 3768832
Ave neighs/atom = 364.596
Ave special neighs/atom = 2.29119
Neighbor list builds = 0
Dangerous builds = 0

# Reset the timestep
undump         	icrd

# Timestep and Neighbour searching
timestep	2.0
neighbor	2.0 bin
neigh_modify	every 1 delay 4 check yes


# Computes
#compute rdf all rdf 100 1 1 1 2 2 2
#compute msd all msd com yes

# Fixes
fix		1 all shake 0.0001 20 0 b 3 a 4
  0 = # of size 2 clusters
  0 = # of size 3 clusters
  0 = # of size 4 clusters
  3344 = # of frozen angles
fix		2 all npt temp 300.0 300.0 100.0 iso 1.0 1.0 100.0
#fix		 rdf all ave/time 1 500000 500000 c_rdf file rdf.xvg mode vector
#fix		 msd all ave/time 1 500000 500000 c_msd file msd.xvg mode vector

# Write out thermodynamic information
thermo_style    custom step temp press vol pe ke etotal
thermo	        250

# Write out trajectory
dump            cxtc all xtc 250 traj-2.xtc

# Write out velocity
#dump 		 1 all custom 1 vel_npt.txt vx vy vz

# Checkpoint files
restart         5000 state_cpt-*.data

# Final run command
run             100000
PPPM initialization ...
  G vector (1/distance) = 0.261897
  grid = 45 18 18
  stencil order = 5
  estimated absolute RMS force accuracy = 0.0323096
  estimated relative force accuracy = 9.72995e-05
  using double precision FFTs
  3d grid and FFT values/proc = 31250 14580
Memory usage per processor = 68.1383 Mbytes
Step Temp Press Volume PotEng KinEng TotEng 
  105002    297.69228     98.16674    102477.56   -29685.312    6204.4501   -23480.861 
  105250    296.77383   -57.401217    103002.47   -29676.131    6185.3078   -23490.823 
  105500    301.77135    391.28941    103501.81   -29702.067    6289.4653   -23412.602 
  105750    300.10529   -305.96751    102808.67    -29758.52    6254.7416   -23503.778 
  106000    305.00715    241.39983    103207.29   -29699.811    6356.9054   -23342.906 
  106250    305.52233    144.55903     103358.1   -29691.057    6367.6426   -23323.414 
  106500    302.13038   -171.28975    103494.88   -29680.781    6296.9481   -23383.833 
  106750    297.23811    197.15961    102422.45   -29794.551    6194.9844   -23599.567 
  107000    298.10804    80.879598    102454.82   -29870.543    6213.1153   -23657.428 
  107250    299.90132    180.11728    102282.69   -29794.325    6250.4904   -23543.835 
  107500    297.88248    75.347213    102870.88   -29617.188    6208.4141   -23408.774 
  107750    302.24971   -110.58531    102609.86   -29786.051    6299.4353   -23486.616 
  108000    297.99014    93.166746     102521.2    -29828.75    6210.6581   -23618.092 
  108250    305.81135    227.95819     102458.1   -29716.064    6373.6664   -23342.398 
  108500    298.49322    192.81061    102051.66    -29972.75    6221.1432   -23751.607 
  108750    299.46482    216.09668    102027.25   -29757.336     6241.393   -23515.943 
  109000    298.93372   -128.32485    102566.61   -29735.604     6230.324   -23505.281 
  109250    299.46427    -140.8534    102814.14   -29847.016    6241.3815   -23605.634 
  109500    296.96278    24.011696    102251.56   -29767.365    6189.2459   -23578.119 
  109750    297.62999    179.97887    102527.39   -29739.004    6203.1518   -23535.852 
  110000    298.29459    250.01905       102263   -29670.807    6217.0034   -23453.803 
  110250     296.2896    199.14448     102585.7   -29700.926    6175.2157    -23525.71 
  110500     303.5091   -300.31204    103360.98   -29715.376    6325.6832   -23389.692 
  110750    294.89341   -67.161867    103100.76   -29812.275    6146.1166   -23666.158 
  111000    294.54182    80.374094    102778.68   -29790.102    6138.7887   -23651.313 
  111250     302.2895   -94.057537    103067.43   -29764.314    6300.2646    -23464.05 
  111500     298.4543   -109.69013     102122.3   -29786.841     6220.332   -23566.509 
  111750    303.55045    84.792535    102743.38   -29721.895    6326.5451   -23395.349 
  112000    304.08738   -16.410656    102212.55   -29829.976    6337.7357    -23492.24 
  112250    301.01093    -255.9699    102572.17   -29715.087    6273.6168    -23441.47 
  112500     295.1793   -39.712303     101955.3   -29918.856    6152.0749   -23766.781 
  112750    297.09712    262.32242    101836.94   -29780.824    6192.0459   -23588.778 
  113000    299.09688   -272.07467    102635.18   -29771.459    6233.7246   -23537.735 
  113250    301.70228   -436.72464    103878.13   -29709.474    6288.0258   -23421.448 
  113500    299.17423    237.23651    102381.22   -29867.166    6235.3366   -23631.829 
  113750    297.07828   -314.56358    103502.33   -29741.292    6191.6532   -23549.639 
  114000    297.39386    187.58249    103219.42   -29641.457    6198.2305   -23443.227 
  114250    303.51785   -103.93173    103128.39   -29873.521    6325.8656   -23547.655 
  114500    300.41675   -369.96925    102895.24   -29700.152    6261.2329   -23438.919 
  114750    305.11214   -27.617568    103357.06   -29656.215    6359.0934   -23297.121 
  115000    297.23318    54.667517    101774.27   -29835.847    6194.8816   -23640.965 
  115250    300.95034    20.002028    102855.72   -29687.837     6272.354   -23415.483 
  115500    300.15183   -55.897088    102449.53   -29747.343    6255.7115   -23491.631 
  115750    300.11407    -155.3442    102028.89   -29916.836    6254.9246   -23661.911 
  116000    297.11269   -346.83436    102591.05   -29694.317    6192.3704   -23501.946 
  116250     298.0434    280.67552    102124.47   -29881.866    6211.7681   -23670.098 
  116500    304.04808   -135.95136    103361.36   -29620.745    6336.9166   -23283.828 
  116750    302.87133   -82.852374    102690.59   -29645.068    6312.3909   -23332.677 
  117000    300.68065    122.10591    102129.96   -29886.944    6266.7332   -23620.211 
  117250    297.64001   -134.02994    102678.68   -29775.243    6203.3607   -23571.882 
  117500     304.3858   -227.73153    102597.78   -29779.361    6343.9551   -23435.405 
  117750    305.85235   -215.05566    102647.41   -29648.423    6374.5208   -23273.902 
  118000    298.95724   -95.801634    103018.19   -29706.856    6230.8141   -23476.042 
  118250    300.28588   -175.70698    102587.36   -29858.014    6258.5054   -23599.509 
  118500    298.17437    144.33352    102006.38   -29835.426    6214.4977   -23620.928 
  118750    302.11853    -143.0472    102692.17   -29786.823    6296.7011   -23490.121 
  119000    300.25228   -351.86041    102996.68   -29737.484    6257.8051   -23479.679 
  119250    304.52727   -139.44339    102798.24   -29696.944    6346.9038   -23350.041 
  119500    299.74017    211.22634    102792.44   -29695.733    6247.1318   -23448.601 
  119750    294.58811   -163.05659    102892.59   -29665.957    6139.7536   -23526.204 
  120000    301.72494    254.63624    102056.82   -29797.425     6288.498   -23508.927 
  120250     299.9575   -52.950954    101972.81   -29740.789    6251.6614   -23489.128 
  120500    301.71119   -92.971112    102617.33   -29776.211    6288.2115   -23487.999 
  120750     298.1827   -131.12367    102503.98   -29867.564    6214.6714   -23652.893 
  121000    301.94118   -139.32411    103162.68    -29726.98    6293.0049   -23433.975 
  121250    293.34645    240.90828    103275.23   -29650.683    6113.8751   -23536.808 
  121500     301.9575    -98.97854     103321.7   -29753.914     6293.345   -23460.569 
  121750    301.27341   -139.49064    102160.31   -29881.329    6279.0873   -23602.241 
  122000    296.36293   -135.77427    102810.05   -29825.092    6176.7439   -23648.348 
  122250    298.83076    220.61449    103042.97   -29775.647     6228.178   -23547.469 
  122500    299.16183   -97.410771    102542.07   -29777.334    6235.0782   -23542.256 
  122750     294.4039   -100.85016    103347.46   -29612.012    6135.9143   -23476.098 
  123000     298.6799    -46.40266    102115.14   -29843.203    6225.0338   -23618.169 
  123250    298.75835    226.71093    102348.38    -29832.93    6226.6689   -23606.261 
  123500    302.41665   -117.51596    102426.11   -29817.236    6302.9145   -23514.321 
  123750    301.42585     670.4667    102402.43   -29683.383    6282.2646   -23401.119 
  124000    296.74399   -513.15446    103365.76   -29764.622    6184.6861   -23579.935 
  124250     302.1959    36.555382    102446.88   -29871.038    6298.3137   -23572.724 
  124500    301.22751    155.38667    102424.55    -29766.85    6278.1306   -23488.719 
  124750    305.17382   -56.869781    102888.74   -29705.156     6360.379   -23344.777 
  125000    302.26685   -170.44618    102028.59   -30004.542    6299.7925    -23704.75 
  125250    296.82293   -59.896431    102718.21   -29808.858    6186.3313   -23622.527 
  125500    299.58725   -70.162694    102904.87   -29741.758    6243.9448   -23497.813 
  125750    300.06245    252.66045    102805.95   -29806.726    6253.8488   -23552.877 
  126000    300.85056   -172.16409    102689.33   -29818.757    6270.2743   -23548.483 
  126250    294.50843   -132.83105    101900.86   -29899.477    6138.0929   -23761.384 
  126500    295.10898   -57.759539    102820.27   -29825.663    6150.6094   -23675.053 
  126750    299.56582    246.53276    101882.91   -29838.987     6243.498   -23595.489 
  127000    295.42234   -370.51729    102412.69   -29812.858    6157.1403   -23655.717 
  127250    306.47987     110.3989    102127.55    -29783.72    6387.5995    -23396.12 
  127500    303.53352    354.67434    101778.22   -29895.082    6326.1923    -23568.89 
  127750    296.30801   -173.65448    103204.57   -29782.623    6175.5993   -23607.024 
  128000    298.77653    545.94429    102299.74   -29757.526    6227.0479   -23530.478 
  128250     309.1538    202.65824    102072.03   -29804.314    6443.3291   -23360.985 
  128500    303.59125    124.94294    102281.72   -29592.077    6327.3954   -23264.681 
  128750    301.68587    23.473447    102220.71    -29807.86    6287.6838   -23520.176 
  129000     294.8752   -231.92902    102519.26   -29792.113    6145.7369   -23646.376 
  129250    301.91352     -46.8613    102285.09   -29724.586    6292.4284   -23432.157 
  129500    306.26267   -168.99137    102679.91    -29827.28    6383.0727   -23444.207 
  129750    300.63303    -1.490535    102904.59   -29762.377    6265.7406   -23496.637 
  130000    301.75642   -414.68885    102609.53   -29776.868    6289.1541   -23487.714 
  130250    298.02891    131.94867    101884.48   -29820.758     6211.466   -23609.292 
  130500    301.46184   -151.70779    102498.32   -29707.985    6283.0146    -23424.97 
  130750    302.89365    219.79812    102341.39   -29918.814     6312.856   -23605.958 
  131000    299.56534   -86.982886    103136.58   -29683.057     6243.488   -23439.569 
  131250    304.16346   -267.04302     102892.5   -29780.248    6339.3212   -23440.927 
  131500    296.68855    240.04326     102847.7   -29847.046    6183.5306   -23663.516 
  131750    296.32177     291.0132    102174.52   -29795.725     6175.886   -23619.839 
  132000    301.53272    438.22393    103050.49   -29717.287    6284.4919   -23432.795 
  132250    302.42864    378.39721    102453.15   -29708.879    6303.1645   -23405.714 
  132500    303.23185    387.24432    103220.97   -29795.668    6319.9048   -23475.763 
  132750    301.67802     30.74581    103141.62   -29758.363    6287.5201   -23470.843 
  133000    300.63442    272.85551     101422.8   -29776.117    6265.7695   -23510.348 
  133250    298.52473    244.29316    102280.67   -29633.241    6221.7999   -23411.441 
  133500    303.28755     61.22563    102139.53   -29933.746    6321.0657    -23612.68 
  133750    296.86885   -5.4261673    103206.63   -29706.704    6187.2884   -23519.416 
  134000    301.84684      40.5826    103213.89   -29464.915    6291.0387   -23173.876 
  134250    297.13715    67.175316    103033.25   -29707.946    6192.8801   -23515.066 
  134500    299.62741    -58.45578    103128.71   -29755.292    6244.7818    -23510.51 
  134750    299.64179    187.13238    102943.31   -29793.975    6245.0814   -23548.894 
  135000    300.02429    90.077562    103315.06   -29705.927    6253.0534   -23452.873 
  135250    299.29718    436.93545    101852.53   -29767.297    6237.8991   -23529.398 
  135500     296.1702    50.114671    102914.02   -29752.534    6172.7272   -23579.807 
  135750    301.08389    354.31528     102921.8   -29656.601    6275.1375   -23381.463 
  136000    299.94973    282.52864    101368.05   -29908.287    6251.4994   -23656.787 
  136250     299.7296   -159.46162    102460.36   -29856.166    6246.9116   -23609.255 
  136500    302.89044    164.32964    102334.77    -29686.89    6312.7891   -23374.101 
  136750    297.47106   -105.40678    102761.99   -29642.156    6199.8394   -23442.316 
  137000    301.75895    121.14717       102653   -29808.839    6289.2068   -23519.632 
  137250    295.80598   -298.40622    102532.95   -29785.908     6165.136   -23620.772 
  137500    296.13283   -482.76867    102531.77   -29775.816    6171.9482   -23603.867 
  137750    301.70355   -65.154653    102531.01   -29735.816    6288.0523   -23447.763 
  138000    301.67713   -34.852817    103272.61   -29709.888    6287.5016   -23422.386 
  138250    299.42316    27.095007    102768.06   -29806.007    6240.5248   -23565.482 
  138500    295.22907    97.135297    101837.63   -29786.074    6153.1123   -23632.962 
  138750    298.52021    242.52129    102474.37   -29835.282    6221.7056   -23613.576 
  139000     299.7761   -41.040296    103610.45   -29662.158    6247.8806   -23414.277 
  139250    300.66388   -66.631695    102981.41   -29822.906    6266.3835   -23556.522 
  139500    295.88566    172.09034    101408.88   -29924.204    6166.7968   -23757.407 
  139750    302.66906   -60.972724    101915.35   -29667.476    6308.1752   -23359.301 
  140000    300.96178    484.02988    102141.09   -29733.545    6272.5924   -23460.952 
  140250    298.41443   -10.318723    102064.96   -29644.602     6219.501   -23425.101 
  140500    300.44136    -11.24191    102500.61   -29760.245    6261.7459   -23498.499 
  140750     296.3228     148.3649    102710.94   -29734.722    6175.9076   -23558.814 
  141000    296.49677    35.483115    102781.27   -29638.007    6179.5334   -23458.473 
  141250    305.51491   -325.55646    102862.73   -29663.225    6367.4879   -23295.737 
  141500    298.60503    171.82777    102051.48    -29911.67    6223.4735   -23688.197 
  141750    300.56764   -137.12686    102948.68   -29647.691    6264.3778   -23383.314 
  142000    298.83478    238.91176    102941.71   -29688.288    6228.2619   -23460.026 
  142250    297.18704   -234.43282    102951.35   -29783.858      6193.92   -23589.938 
  142500     302.3749    368.80555    102138.98   -29785.726    6302.0443   -23483.682 
  142750    302.11069   -26.753444    103147.18   -29729.656    6296.5378   -23433.118 
  143000    296.71079    17.155146    102529.23   -29777.062     6183.994   -23593.068 
  143250    294.41106   -269.11817    102839.81   -29714.924    6136.0634    -23578.86 
  143500    301.49943   -322.33054    102608.64    -29861.43     6283.798   -23577.632 
  143750    300.59748     68.07991    102084.79   -29786.812    6264.9997   -23521.812 
  144000    300.33975   -215.80601    103023.51   -29595.791    6259.6282   -23336.163 
  144250    300.30497    111.84024    103057.04   -29795.945    6258.9033   -23537.041 
  144500    301.43706    191.63905    102426.97   -29738.224     6282.498   -23455.726 
  144750    296.47339    -228.9406    103176.87   -29710.432    6179.0462   -23531.385 
  145000    302.85067   -19.354294    102882.84   -29749.211    6311.9604   -23437.251 
  145250    302.24911   -193.20436       103573   -29650.813    6299.4228    -23351.39 
  145500    295.54669     56.32784    102554.15   -29680.883    6159.7321    -23521.15 
  145750    296.23802    351.93526    102082.74   -29720.106    6174.1407   -23545.965 
  146000    298.52878    -176.4083    102641.69   -29686.793    6221.8842   -23464.909 
  146250    302.70459   -122.72487    103210.66   -29794.931    6308.9158   -23486.015 
  146500    301.02353   -74.779906    102839.25   -29717.221    6273.8793   -23443.342 
  146750     303.9833   -324.18328    103375.54   -29697.456    6335.5663    -23361.89 
  147000    296.83359    320.11685    102312.65   -29744.083    6186.5534   -23557.529 
  147250    293.41779    155.83966    101910.23   -29900.892     6115.362    -23785.53 
  147500    303.27702   -375.38726    102802.65   -29683.855    6320.8462   -23363.008 
  147750    300.55816   -69.583757    102711.62   -29707.041    6264.1803    -23442.86 
  148000    299.94078   -256.28615    103008.41   -29799.093    6251.3129    -23547.78 
  148250    302.57462    69.118575    102221.31   -29833.214     6306.207   -23527.007 
  148500    300.01246   -50.036678    103269.35   -29633.574    6252.8068   -23380.767 
  148750    298.36445   -12.312351    102698.03   -29717.581    6218.4594   -23499.121 
  149000    299.71494    308.85141     102647.2   -29785.744    6246.6061   -23539.138 
  149250    299.88716   -324.10972    103148.95   -29596.703    6250.1954   -23346.508 
  149500     295.7912    150.73809    102719.75   -29757.882    6164.8281   -23593.054 
  149750    298.38159    14.270352    102216.27   -29882.538    6218.8165   -23663.722 
  150000     299.8792    63.537563    102616.13   -29785.289    6250.0296   -23535.259 
  150250    297.67639   -122.78894    103166.94   -29646.132     6204.119   -23442.013 
  150500    297.66224   -227.95245    102519.91   -29815.625    6203.8239   -23611.801 
  150750    299.40922    343.23608    102532.88    -29733.66    6240.2342   -23493.426 
  151000    300.46015    178.68819    101800.43   -29856.178    6262.1375    -23594.04 
  151250    299.59813   -218.64687    102612.49   -29923.766    6244.1715   -23679.595 
  151500    294.91792   -23.466643    102615.72   -29704.187    6146.6274   -23557.559 
  151750    298.69531   -337.06629    102722.12   -29844.748    6225.3551   -23619.393 
  152000    300.26153   -80.344113    102680.31   -29748.118     6257.998    -23490.12 
  152250    296.46603    295.97701    102013.52   -29760.747    6178.8929   -23581.854 
  152500    299.72574    164.51119    102507.09   -29770.964    6246.8312   -23524.133 
  152750     301.1383   -130.09501    103074.21   -29653.164    6276.2715   -23376.893 
  153000    303.62155     46.25959    102828.55   -29780.848    6328.0269   -23452.821 
  153250    298.07257   -146.55334    102672.34   -29862.182    6212.3761   -23649.806 
  153500    303.23933    324.52852    103137.86   -29660.409    6320.0608   -23340.348 
  153750    303.03789    252.65288    102398.74   -29856.501    6315.8624   -23540.639 
  154000    295.78144    33.385812    102256.44   -29746.141    6164.6247   -23581.517 
  154250    297.13991    30.535107    103324.75   -29651.492    6192.9378   -23458.554 
  154500    298.42059    109.84329    102051.35   -29852.036    6219.6293   -23632.406 
  154750    300.07485     82.51027    102632.98   -29733.952    6254.1072   -23479.845 
  155000    299.84687    53.340258    102979.53   -29725.086    6249.3557    -23475.73 
  155250    305.73899 -0.0040426426    102422.89   -29672.059    6372.1581   -23299.901 
  155500    304.85982    161.14178     102429.4    -29804.66    6353.8346   -23450.825 
  155750    301.86518   -8.5694767    102940.67   -29707.775     6291.421   -23416.354 
  156000     297.1943    8.2252137    102618.12   -29690.208    6194.0713   -23496.137 
  156250    300.93466    159.74931    102532.41   -29781.041    6272.0272   -23509.014 
  156500    301.08124    135.00838    102789.96    -29710.53    6275.0821   -23435.448 
  156750    306.21213   -91.653095     102081.4   -29853.853    6382.0192   -23471.834 
  157000    299.76656   -305.94281     102260.7    -29880.16    6247.6819   -23632.478 
  157250    292.07166   -177.77037    102843.63    -29638.41    6087.3062   -23551.104 
  157500    300.16767   -424.06111    102888.57   -29772.509    6256.0418   -23516.467 
  157750    303.31396   -210.47339    103334.32   -29755.045     6321.616   -23433.429 
  158000    301.62876    73.851083    102279.86    -29721.88    6286.4934   -23435.386 
  158250    305.51609    54.977472    101195.92   -29890.752    6367.5125   -23523.239 
  158500    296.04042      130.777     101978.1   -29896.437    6170.0223   -23726.415 
  158750    302.63561   -6.0274848    102435.84   -29776.096    6307.4781   -23468.618 
  159000    297.19645    109.55325    102123.62   -29729.736    6194.1161    -23535.62 
  159250    300.77423    -76.69564    102511.06   -29844.111    6268.6836   -23575.427 
  159500    304.04878   -219.97133    102249.97   -29763.382    6336.9311   -23426.451 
  159750    302.26112    317.43428     102600.6    -29697.81     6299.673   -23398.137 
  160000    296.00449   -267.04751    103149.48   -29681.291    6169.2735   -23512.018 
  160250    299.91063   -101.04097    102901.43   -29691.782    6250.6845   -23441.097 
  160500    302.58665    185.78914    102267.39   -29843.905    6306.4577   -23537.448 
  160750    303.11972  -0.24734341    103171.29   -29659.444    6317.5678   -23341.876 
  161000     298.9372   -10.528335    102618.26   -29803.128    6230.3966   -23572.731 
  161250    297.79961   -152.58374    102923.67   -29786.479    6206.6869   -23579.792 
  161500    302.00016    17.860624    103092.29   -29590.321    6294.2341   -23296.087 
  161750    302.57069   -363.98925    102640.37   -29766.944    6306.1251   -23460.819 
  162000    303.79062    -76.01544    102297.22   -29810.868    6331.5505   -23479.317 
  162250    299.18359    436.86993    101973.58   -29903.943    6235.5317   -23668.412 
  162500    295.55865    154.35338    103043.23   -29748.705    6159.9813   -23588.724 
  162750     304.0545   -146.75217    102165.53   -29740.877    6337.0503   -23403.827 
  163000    300.04156    -146.1584    102565.65   -29737.706    6253.4132   -23484.293 
  163250    290.23676   -229.38153    103133.56   -29882.144    6049.0634    -23833.08 
  163500    307.64165   -362.37252    102501.67   -29881.046    6411.8132   -23469.233 
  163750    303.00439    66.504953    102029.37    -29872.24     6315.164   -23557.076 
  164000    303.68944    301.02469    101626.81   -29760.942    6329.4418     -23431.5 
  164250    306.56177     242.0261    102536.04     -29668.8    6389.3064   -23279.493 
  164500    296.70446    278.02253    101757.27   -29896.156    6183.8621   -23712.294 
  164750    298.43764   -2.7471125    102833.61   -29776.381    6219.9848   -23556.396 
  165000     297.3051    -134.0758     103084.7   -29742.376    6196.3805   -23545.996 
  165250    304.74285   -293.77989    102592.66   -29724.866    6351.3968   -23373.469 
  165500    298.43148    54.335714    102882.35   -29608.687    6219.8563   -23388.831 
  165750    302.29823    199.46757    102062.39   -29831.767    6300.4465   -23531.321 
  166000    297.64847   -32.222945    101901.38   -29952.474    6203.5369   -23748.937 
  166250    298.77896    102.42359    102279.95   -29879.853    6227.0984   -23652.754 
  166500    300.05045     20.78895     102882.2   -29667.808    6253.5986    -23414.21 
  166750    298.95263    180.33786    103060.54   -29716.873     6230.718   -23486.155 
  167000    300.35445    7.8681071    102488.91   -29766.767    6259.9345   -23506.833 
  167250    299.37584   -22.832089    103328.41   -29621.616    6239.5386   -23382.077 
  167500     298.8781    420.70786    102770.54    -29710.55    6229.1647   -23481.385 
  167750    299.39134   -19.603967    102485.06   -29835.895    6239.8615   -23596.033 
  168000    302.50356    117.36494    102695.89   -29819.191    6304.7259   -23514.465 
  168250    300.31529   -25.565175    102276.95   -29669.479    6259.1184    -23410.36 
  168500    299.39087    155.96475    102081.13    -29814.71    6239.8518   -23574.858 
  168750    303.27152   -140.25717    102192.37   -29831.324    6320.7316   -23510.592 
  169000    297.01295   -79.394229    102291.47   -29705.942    6190.2916    -23515.65 
  169250    299.02291   -237.27975    101667.35   -29942.895    6232.1829   -23710.712 
  169500    300.15241   -254.85206    102819.48   -29758.981    6255.7236   -23503.258 
  169750    297.90023    70.436768    102349.34   -29826.348    6208.7842   -23617.563 
  170000     296.2472    13.031455    101732.28   -29938.791     6174.332   -23764.459 
  170250    291.15181    -4.262461    102224.62   -29677.744    6068.1346    -23609.61 
  170500    299.05748   -329.65513    102487.21   -29723.087    6232.9032   -23490.184 
  170750    297.57255   -138.30264    102590.92   -29627.965    6201.9546   -23426.011 
  171000    303.96305   -32.763359    103020.93   -29691.133    6335.1444   -23355.988 
  171250    295.45168   -411.74896    102626.16    -29825.57    6157.7518   -23667.818 
  171500    300.26922   -1.9348699    102510.68   -29796.645    6258.1583   -23538.487 
  171750    301.45286    242.18465    102500.36   -29737.634    6282.8274   -23454.807 
  172000    300.80292   -70.301283    101703.82   -29762.372    6269.2814   -23493.091 
  172250    302.72812    102.63057     101981.6   -29804.775    6309.4062   -23495.369 
  172500     299.6897    28.027524    101703.98   -29805.765    6246.0798   -23559.686 
  172750    298.83359    214.76617    101868.05   -29950.761     6228.237   -23722.524 
  173000     303.4882    192.28078       102114   -29761.011    6325.2475   -23435.763 
  173250    305.21385   -151.82043    102460.68   -29890.803    6361.2134    -23529.59 
  173500    302.86004   -325.83827    102854.99   -29779.322    6312.1557   -23467.167 
  173750    298.87348     132.7596    103124.89   -29746.446    6229.0685   -23517.378 
  174000    300.97797   -94.815212    102954.94   -29610.681    6272.9298   -23337.752 
  174250    305.44995   -33.355205    102439.57   -29786.903     6366.134   -23420.769 
  174500    300.55737   -90.044073    102469.85   -29807.682    6264.1638   -23543.518 
  174750     296.8358   -155.16155    102025.83   -29895.874    6186.5994   -23709.274 
  175000     296.2679   -44.846988     102023.5   -29823.227    6174.7634   -23648.464 
  175250    296.33801   -237.59357    102591.82   -29777.283    6176.2246   -23601.059 
  175500    299.35376    379.74159    102576.77   -29756.367    6239.0783   -23517.289 
  175750    306.42906   -425.98498    103118.75   -29696.889    6386.5406   -23310.348 
  176000    303.52302    282.48526     102666.3   -29661.076    6325.9733   -23335.103 
  176250    300.02284    -144.4274    102913.93   -29723.364    6253.0232   -23470.341 
  176500    299.67527   -300.31151    102975.05   -29799.014    6245.7791   -23553.235 
  176750    302.25008   -89.170855     102705.7   -29862.031    6299.4429   -23562.588 
  177000    304.60923    190.53116    102848.26   -29568.979    6348.6119   -23220.367 
  177250    299.62506    288.70949    102426.16   -29835.331    6244.7328   -23590.598 
  177500    298.76465   -66.194494    102820.18   -29726.342    6226.8002   -23499.541 
  177750    299.60276    37.391673    102755.39   -29715.211    6244.2679   -23470.943 
  178000    301.84765    63.281458    102259.56   -29759.933    6291.0555   -23468.878 
  178250    297.85135    266.58244    102667.98   -29839.593    6207.7654   -23631.828 
  178500    299.56702   -118.70606    102526.23   -29750.249    6243.5231   -23506.726 
  178750    300.22679    246.74959    102113.94   -29980.527    6257.2739   -23723.253 
  179000    304.36198    32.297177    102960.46   -29819.967    6343.4588   -23476.508 
  179250    298.55704    135.17298    102989.38   -29615.534    6222.4732   -23393.061 
  179500    298.75018    6.0360516    103399.07    -29804.52    6226.4985   -23578.022 
  179750    297.63156    154.15383    103235.71   -29584.251    6203.1846   -23381.067 
  180000    295.98432    124.78412    103356.02    -29462.21    6168.8531   -23293.357 
  180250    299.18204    508.11539    101980.69   -29846.177    6235.4995   -23610.677 
  180500    301.58044    331.91385    102582.91   -29755.365    6285.4863   -23469.879 
  180750    300.42888   -19.985051    102711.97   -29800.411    6261.4858   -23538.925 
  181000    301.72231   -557.48162    102711.45   -29775.074    6288.4432   -23486.631 
  181250    302.04764     426.3428    101687.69    -29835.78    6295.2238   -23540.556 
  181500    302.42681    263.85754    102200.48   -29689.145    6303.1263   -23386.019 
  181750     299.0907   -113.08231    102835.11   -29677.314    6233.5957   -23443.718 
  182000    299.85411   -248.86211    102812.69   -29670.048    6249.5066   -23420.542 
  182250    301.60364   -159.12548     103150.2   -29721.258      6285.97   -23435.288 
  182500    298.17904   -31.817817    102473.67    -29809.53    6214.5951   -23594.935 
  182750     299.7017    96.058213    102546.99   -29790.876    6246.3301   -23544.546 
  183000    309.62298   -55.313108    103531.26   -29902.871    6453.1077   -23449.763 
  183250    303.03297    -217.5376    103396.83   -29628.332    6315.7597   -23312.572 
  183500    297.07468   -84.232036     102808.4   -29675.041    6191.5781   -23483.463 
  183750    301.91644    92.719592    102475.05   -29744.151    6292.4892   -23451.661 
  184000    300.35976   -134.13071    102447.37   -29634.936    6260.0452   -23374.891 
  184250    291.53902   -60.721817    102732.46   -29919.002    6076.2048   -23842.797 
  184500    302.76514   -191.67351    102413.04   -29717.949    6310.1778   -23407.771 
  184750    303.45138     37.82895    102739.42   -29806.764    6324.4802   -23482.284 
  185000    297.27336   -238.30778    102349.59   -29732.961     6195.719   -23537.242 
  185250    299.25546    51.270065    102702.38   -29619.383    6237.0295   -23382.353 
  185500    297.09041    79.410666    102122.97   -29764.276    6191.9059    -23572.37 
  185750    299.30653    27.347596    103249.27   -29661.626     6238.094   -23423.532 
  186000    304.15002    -159.1962    103187.61   -29665.821     6339.041    -23326.78 
  186250    301.25798    82.877838    101826.03   -29832.226    6278.7658    -23553.46 
  186500    301.94893    233.90215    102099.02   -29918.871    6293.1663   -23625.704 
  186750    297.43581   -62.314537    103045.37   -29694.829    6199.1048   -23495.725 
  187000    300.28383   -144.73412    103633.62   -29596.051    6258.4628   -23337.588 
  187250    300.02978    29.140517    103076.46   -29808.564    6253.1678   -23555.397 
  187500    303.03608    105.72345    101648.87   -29837.587    6315.8245   -23521.763 
  187750    302.55383   -98.735427    103366.59   -29717.544    6305.7736    -23411.77 
  188000    293.67236   -318.83618    103083.78   -29816.414    6120.6675   -23695.746 
  188250    298.00187   -13.951452    101922.24   -29838.287    6210.9026   -23627.385 
  188500    300.25657    13.902701    102115.65   -29702.993    6257.8946   -23445.098 
  188750    305.77439    171.37732    102515.91   -29784.694    6372.8961   -23411.798 
  189000    298.42146   -141.67983    102669.04   -29914.896    6219.6475   -23695.248 
  189250    299.25539   -149.74227    103047.36   -29614.179    6237.0282   -23377.151 
  189500     300.5839    75.413949    103257.61   -29680.862    6264.7168   -23416.145 
  189750    298.84894   -305.71298    102877.79   -29709.623     6228.557   -23481.066 
  190000     304.8794   -198.97504    102881.97    -29838.08    6354.2428   -23483.838 
  190250    296.14536   -47.219005    102751.43   -29797.625    6172.2094   -23625.416 
  190500     301.2448   -40.639404    103281.07   -29708.141    6278.4911    -23429.65 
  190750    301.70288    327.21787    102346.41   -29733.052    6288.0384   -23445.014 
  191000    299.31767    7.3528349     102766.4   -29826.255    6238.3262   -23587.929 
  191250      300.258    111.00906     102815.3   -29565.467    6257.9244   -23307.543 
  191500    304.01491    206.15604     102532.7   -29826.535    6336.2253    -23490.31 
  191750    300.74943   -270.68219    102509.79   -29857.031    6268.1667   -23588.864 
  192000    302.37622   -226.88222    103166.05   -29739.127    6302.0719   -23437.055 
  192250    301.59959    78.656734    102907.15   -29849.454    6285.8855   -23563.568 
  192500    302.61264   -45.111588    102154.53   -29855.339    6306.9993    -23548.34 
  192750    302.22813    -257.2057    103232.03    -29645.14    6298.9855   -23346.155 
  193000    300.81462    -515.6125    102286.21   -29833.107    6269.5254   -23563.581 
  193250    300.69326   -37.159446    101646.38   -30011.312    6266.9959   -23744.316 
  193500    296.62633     183.6887    101589.34   -29747.382    6182.2337   -23565.148 
  193750    300.36349    147.14557    101974.88   -29843.853     6260.123    -23583.73 
  194000     299.0454   -216.71399    102563.45   -29909.376    6232.6516   -23676.725 
  194250    305.07715   -22.712357    103113.84    -29646.34    6358.3642   -23287.976 
  194500    303.76772    184.25411    102598.27   -29699.579    6331.0733   -23368.505 
  194750    301.56675    17.547213    102401.22   -29706.846    6285.2011   -23421.644 
  195000    303.95641    122.10321    102482.51   -29731.889     6335.006   -23396.883 
  195250    301.16291    336.33557    102276.64   -29734.635    6276.7843    -23457.85 
  195500    299.21659   -104.66028    102133.07   -29707.371    6236.2195   -23471.152 
  195750     301.0059    364.05246    102467.55   -29764.333    6273.5119   -23490.821 
  196000    304.21964   -82.850365    102802.23   -29635.761    6340.4921   -23295.269 
  196250    304.15712   -61.492406    103697.17   -29668.589    6339.1892     -23329.4 
  196500    299.86443   -161.32967    102659.13   -29792.981    6249.7217   -23543.259 
  196750    298.88544    50.927968    102311.04   -29713.768    6229.3176   -23484.451 
  197000    296.75331    25.411845     102314.1   -29848.231    6184.8802   -23663.351 
  197250    298.20223   -103.10839    102058.48    -29728.88    6215.0785   -23513.802 
  197500    297.17836   -102.75715    102418.49   -29734.144    6193.7391   -23540.405 
  197750    300.21644       366.31     102688.6   -29774.856    6257.0582   -23517.798 
  198000    297.63255   -376.54503    102355.52   -29752.503    6203.2052   -23549.298 
  198250    297.65619   -144.43415       102212   -29850.509    6203.6979   -23646.812 
  198500    299.33983    101.32371    103382.16   -29642.487    6238.7879   -23403.699 
  198750    301.21242    10.749218    103199.97   -29687.577    6277.8162   -23409.761 
  199000    300.96018   -194.15373    103042.02   -29696.085    6272.5591   -23423.526 
  199250    299.72412   -12.734465     102863.6   -29719.505    6246.7974   -23472.707 
  199500    299.00508     128.5228    102567.87   -29772.567    6231.8113   -23540.756 
  199750    298.15379   -349.97825    102588.68   -29827.046    6214.0689   -23612.977 
  200000    303.60426    387.17645    102674.16   -29676.351    6327.6665   -23348.684 
  200250     301.6287    275.09129    102196.07    -29784.42    6286.4922   -23497.927 
  200500    299.10275    33.317065    102583.92   -29833.129    6233.8468   -23599.282 
  200750    296.16664   -73.139062     102650.3    -29752.85    6172.6529   -23580.197 
  201000     299.2584     44.94826    102043.21   -29976.153    6237.0909   -23739.062 
  201250    301.38808     54.51412    103265.82   -29601.985    6281.4772   -23320.508 
  201500    302.17105    287.36011    102483.47   -29814.963    6297.7957   -23517.167 
  201750    302.97118    190.68933    102311.02   -29817.684    6314.4721   -23503.212 
  202000    298.99816   -132.91772    102745.68   -29882.795     6231.667   -23651.128 
  202250    300.27343    12.162898    102607.28   -29776.812     6258.246   -23518.566 
  202500    299.30818    210.44206    102410.54   -29829.459    6238.1283    -23591.33 
  202750    295.20427    271.44597    102131.38   -29832.811    6152.5954   -23680.216 
  203000     300.4907    86.278841    102119.27   -29716.714    6262.7743    -23453.94 
  203250    302.97523   -220.63449    102955.14   -29747.475    6314.5563   -23432.919 
  203500    296.13555    173.55194    102371.74   -29612.322     6172.005   -23440.317 
  203750    298.72247   -233.49581    102759.95   -29665.186    6225.9211   -23439.265 
  204000    301.10563   -258.79003    102232.32   -29800.258    6275.5906   -23524.668 
  204250     294.9565    96.635398    102385.93   -29779.973    6147.4315   -23632.541 
  204500    299.12796    4.9899027    102829.18   -29849.394    6234.3723   -23615.022 
  204750    296.17962   -352.77072       101592   -29829.373    6172.9235   -23656.449 
  205000      298.376    231.42707    101562.44   -29990.624    6218.7001   -23771.924 
  205002    297.22937    160.56275    101595.98   -29967.195    6194.8021   -23772.392 
Loop time of 11791.8 on 1 procs (1 MPI x 1 OpenMP) for 100000 steps with 10337 atoms

Pair  time (%) = 8701.7 (73.7948)
Bond  time (%) = 122.197 (1.03629)
Kspce time (%) = 835.408 (7.08468)
Neigh time (%) = 1393.41 (11.8168)
Comm  time (%) = 35.4002 (0.300211)
Outpt time (%) = 0.450505 (0.0038205)
Other time (%) = 703.198 (5.96347)

FFT time (% of Kspce) = 196.952 (23.5755)
FFT Gflps 3d (1d only) = 1.41948 2.14174

Nlocal:    10337 ave 10337 max 10337 min
Histogram: 1 0 0 0 0 0 0 0 0 0
Nghost:    30294 ave 30294 max 30294 min
Histogram: 1 0 0 0 0 0 0 0 0 0
Neighs:    3.80417e+06 ave 3.80417e+06 max 3.80417e+06 min
Histogram: 1 0 0 0 0 0 0 0 0 0

Total # of neighbors = 3804169
Ave neighs/atom = 368.015
Ave special neighs/atom = 2.29119
Neighbor list builds = 11085
Dangerous builds = 0
write_restart   confout-2.data
PPPM initialization ...
  G vector (1/distance) = 0.262151
  grid = 45 18 18
  stencil order = 5
  estimated absolute RMS force accuracy = 0.0320199
  estimated relative force accuracy = 9.64271e-05
  using double precision FFTs
  3d grid and FFT values/proc = 31250 14580
