ITEM: TIMESTEP
105001
ITEM: NUMBER OF ATOMS
12061
ITEM: BOX BOUNDS pp pp pp
-80.4995 80.4995
-16.0999 16.0999
-16.0999 16.0999
ITEM: ATOMS id mol type x y z ix iy iz 
1 1 1 -13.0659 -0.842461 2.04282 0 0 0 
2 1 1 -14.0752 -1.82084 3.23076 0 0 0 
3 1 2 -13.6434 -0.847319 2.99159 0 0 0 
4 1 1 -11.8899 0.112588 3.73678 0 0 0 
5 1 1 -13.4265 0.532407 4.48247 0 0 0 
6 1 2 -12.8301 -0.302622 4.09829 0 0 0 
7 1 1 -13.3424 -1.72117 5.65786 0 0 0 
8 1 1 -11.8675 -2.25361 4.87788 0 0 0 
9 1 2 -12.438 -1.31183 5.18794 0 0 0 
10 1 1 -12.2266 0.00808392 6.70569 0 0 0 
11 1 1 -10.741 -0.10963 5.76432 0 0 0 
12 1 2 -11.5429 -0.661716 6.18845 0 0 0 
13 1 1 -11.8784 -2.35257 7.40835 0 0 0 
14 1 1 -10.3257 -2.49604 6.69403 0 0 0 
15 1 2 -10.9887 -1.73662 7.20066 0 0 0 
16 1 1 -9.17095 -1.06172 8.08688 0 0 0 
17 1 1 -10.6365 -0.344405 8.91249 0 0 0 
18 1 2 -10.2272 -1.2589 8.42218 0 0 0 
19 1 1 -10.9967 -2.44134 10.1131 0 0 0 
20 1 1 -9.68951 -3.25268 9.25325 0 0 0 
21 1 2 -10.115 -2.27489 9.53945 0 0 0 
22 1 1 -9.56701 -0.759575 11.043 0 0 0 
23 1 1 -8.17966 -1.50144 10.2859 0 0 0 
24 1 2 -9.18323 -1.68572 10.6502 0 0 0 
25 1 1 -8.74248 -2.16002 12.7476 0 0 0 
26 1 1 -10.1763 -2.84997 12.1049 0 0 0 
27 1 2 -9.1303 -2.64056 11.8456 0 0 0 
28 1 1 -8.59141 -4.52502 12.4996 0 0 0 
29 1 1 -8.82982 -4.59883 10.7866 0 0 0 
30 1 2 -8.40401 -3.94752 11.6056 0 0 0 
31 1 1 -6.78471 -3.41412 10.1638 0 0 0 
32 1 1 -6.34689 -3.34176 11.8268 0 0 0 
33 1 2 -6.96953 -3.96034 11.1187 0 0 0 
34 1 1 -6.28535 -5.87907 12.0915 0 0 0 
35 1 1 -6.9228 -6.00764 10.4803 0 0 0 
36 1 2 -6.37053 -5.34331 11.0759 0 0 0 
37 1 1 -4.98597 -4.92038 9.46172 0 0 0 
38 1 1 -4.24508 -4.57417 11.1994 0 0 0 
39 1 2 -4.91621 -5.27014 10.5722 0 0 0 
40 1 1 -3.27007 -6.37192 9.83311 0 0 0 
41 1 1 -3.63319 -6.64054 11.4919 0 0 0 
42 1 2 -4.10081 -6.54531 10.545 0 0 0 
43 1 1 -4.23582 -8.65544 10.4956 0 0 0 
44 1 1 -5.76585 -7.88243 10.4239 0 0 0 
45 1 2 -4.76508 -7.8143 10.0927 0 0 0 
46 1 1 -3.60787 -8.30154 8.31705 0 0 0 
47 1 1 -5.2756 -9.01384 8.39824 0 0 0 
48 1 2 -4.65155 -8.1559 8.5866 0 0 0 
49 1 1 -5.89243 -6.49449 7.85734 0 0 0 
50 1 1 -4.23755 -6.21693 7.54746 0 0 0 
51 1 2 -5.01361 -6.97343 7.63863 0 0 0 
52 1 1 -4.21103 -7.85865 5.82183 0 0 0 
53 1 1 -5.87228 -8.28484 5.98481 0 0 0 
54 1 2 -5.18432 -7.44706 6.13759 0 0 0 
55 1 1 -6.83972 -6.16776 5.5096 0 0 0 
56 1 1 -5.22776 -5.39015 5.06695 0 0 0 
57 1 2 -5.79443 -6.36671 5.15359 0 0 0 
58 1 1 -6.37262 -7.89999 3.78289 0 0 0 
59 1 1 -6.56398 -6.42069 2.97581 0 0 0 
60 1 2 -5.88754 -6.93955 3.72132 0 0 0 
61 1 1 -3.79828 -7.61218 3.65626 0 0 0 
62 1 1 -4.24509 -6.0918 2.97459 0 0 0 
63 1 2 -4.56612 -7.12644 3.05654 0 0 0 
64 1 1 -4.6608 -8.77518 1.66292 0 0 0 
65 1 1 -5.80431 -7.34298 1.34406 0 0 0 
66 1 2 -4.73923 -7.66965 1.6408 0 0 0 
67 1 1 -3.95643 -7.15111 -0.331946 0 0 0 
68 1 1 -3.81882 -5.88534 0.823468 0 0 0 
69 1 2 -3.7101 -6.99653 0.690437 0 0 0 
70 1 1 -2.06877 -7.27089 2.1785 0 0 0 
71 1 1 -1.86267 -8.28039 0.852506 0 0 0 
72 1 2 -2.20685 -7.28811 1.11516 0 0 0 
73 1 1 -1.31074 -6.1753 -0.586604 0 0 0 
74 1 1 -1.47789 -5.19785 0.969013 0 0 0 
75 1 2 -1.28213 -6.20792 0.548014 0 0 0 
76 1 1 0.248339 -6.99715 1.93278 0 0 0 
77 1 1 0.588677 -7.34136 0.245519 0 0 0 
78 1 2 0.223548 -6.54904 0.916659 0 0 0 
79 1 1 1.61041 -5.17803 -0.0143179 0 0 0 
80 1 1 1.073 -4.47755 1.47787 0 0 0 
81 1 2 1.30481 -5.41552 0.972566 0 0 0 
82 1 1 2.15175 -6.62723 2.6275 0 0 0 
83 1 1 2.9061 -6.9669 1.1242 0 0 0 
84 1 2 2.49572 -6.12332 1.68724 0 0 0 
85 1 1 4.0762 -4.67845 1.22899 0 0 0 
86 1 1 3.13361 -4.378 2.57377 0 0 0 
87 1 2 3.57877 -5.1416 2.08851 0 0 0 
88 1 1 3.92384 -6.30197 3.86798 0 0 0 
89 1 1 5.00603 -6.78666 2.62646 0 0 0 
90 1 2 4.5216 -5.89718 3.02206 0 0 0 
91 1 1 6.14263 -4.44211 2.9391 0 0 0 
92 1 1 5.01136 -4.22034 4.2086 0 0 0 
93 1 2 5.53776 -5.00549 3.64635 0 0 0 
94 1 1 5.96882 -6.21345 5.41322 0 0 0 
95 1 1 6.84712 -6.60686 4.02476 0 0 0 
96 1 2 6.51076 -5.77525 4.57965 0 0 0 
97 1 1 7.74029 -4.57999 6.03004 0 0 0 
98 1 1 8.68215 -5.83699 5.10644 0 0 0 
99 1 2 7.86963 -5.11363 5.00804 0 0 0 
100 1 1 8.39849 -4.33596 2.94691 0 0 0 
101 1 1 7.79412 -3.01965 3.88643 0 0 0 
102 1 2 8.40293 -3.94865 4.01411 0 0 0 
103 1 1 9.97593 -3.41888 5.44059 0 0 0 
104 1 1 10.615 -4.01231 3.98757 0 0 0 
105 1 2 9.81121 -3.40905 4.36568 0 0 0 
106 1 1 9.58803 -2.00708 2.6663 0 0 0 
107 1 1 9.23394 -1.46567 4.27851 0 0 0 
108 1 2 9.93161 -2.03587 3.71628 0 0 0 
109 1 1 11.897 -1.74103 4.64019 0 0 0 
110 1 1 11.9011 -2.08464 2.99214 0 0 0 
111 1 2 11.3604 -1.46765 3.73355 0 0 0 
112 1 1 10.6547 0.354662 2.7452 0 0 0 
113 1 1 11.1438 0.595427 4.52197 0 0 0 
114 1 2 11.4353 0.0472554 3.54699 0 0 0 
115 1 1 12.9391 1.65101 3.00818 0 0 0 
116 1 1 13.5798 0.29564 3.90434 0 0 0 
117 1 2 12.8541 0.603503 3.068 0 0 0 
118 1 1 14.3752 0.764877 1.46777 0 0 0 
119 1 1 13.8266 -0.864333 1.45733 0 0 0 
120 1 2 13.4628 0.182471 1.7051 0 0 0 
121 1 1 11.6207 -0.300111 0.5683 0 0 0 
122 1 1 12.0284 1.40104 0.448531 0 0 0 
123 1 2 12.4767 0.384374 0.524351 0 0 0 
124 1 1 14.0965 0.594523 -0.971276 0 0 0 
125 1 1 13.3158 -1.06172 -1.04438 0 0 0 
126 1 2 13.1004 0.0818687 -0.882097 0 0 0 
127 1 1 11.794 1.54874 -1.8909 0 0 0 
128 1 1 12.7779 0.561008 -2.98187 0 0 0 
129 1 2 12.2285 0.496629 -2.02964 0 0 0 
130 1 1 10.2358 0.386326 -1.67356 0 0 0 
131 1 1 10.4895 -0.418431 -3.057 0 0 0 
132 1 2 10.9551 -0.311771 -2.09369 0 0 0 
133 1 1 11.4597 -2.39848 -2.11054 0 0 0 
134 1 1 10.9782 -1.91218 -0.430837 0 0 0 
135 1 2 10.8368 -1.77456 -1.52648 0 0 0 
136 1 1 9.49462 -2.75041 -2.8795 0 0 0 
137 1 1 8.70895 -1.53153 -1.80878 0 0 0 
138 1 2 9.47341 -2.31822 -1.87553 0 0 0 
139 1 1 9.85933 -4.18545 -0.752262 0 0 0 
140 1 1 8.85347 -3.19062 0.0983699 0 0 0 
141 1 2 9.08046 -3.4804 -0.991143 0 0 0 
142 1 1 7.06903 -3.87852 -1.7711 0 0 0 
143 1 1 8.33774 -4.85498 -2.60053 0 0 0 
144 1 2 8.01293 -4.41555 -1.62065 0 0 0 
145 1 1 6.82387 -6.21643 -1.0669 0 0 0 
146 1 1 7.33738 -5.1907 0.309473 0 0 0 
147 1 2 7.70357 -5.6246 -0.670602 0 0 0 
148 1 1 9.32774 -6.91242 -1.2873 0 0 0 
149 1 1 9.55918 -5.97752 0.160157 0 0 0 
150 1 2 8.81962 -6.58017 -0.363595 0 0 0 
151 1 1 7.51812 -7.59007 1.0545 0 0 0 
152 1 1 7.71099 -8.40787 -0.465291 0 0 0 
153 1 2 8.24091 -7.82619 0.280729 0 0 0 
154 1 1 9.99003 -9.22642 0.410883 0 0 0 
155 1 1 9.90161 -8.00203 1.65282 0 0 0 
156 1 2 9.28984 -8.6657 1.03747 0 0 0 
157 1 1 8.00052 -9.25104 2.57788 0 0 0 
158 1 1 8.12287 -10.5116 1.34677 0 0 0 
159 1 2 8.69093 -9.75718 1.9586 0 0 0 
160 1 1 10.7478 -9.97574 2.89087 0 0 0 
161 1 1 10.0839 -11.4019 2.14488 0 0 0 
162 1 2 9.80456 -10.4867 2.79385 0 0 0 
163 1 1 8.99087 -9.889 4.64102 0 0 0 
164 1 1 8.31916 -11.4408 4.18763 0 0 0 
165 1 2 9.23479 -10.8009 4.1435 0 0 0 
166 1 1 10.4545 -12.5307 4.67055 0 0 0 
167 1 1 11.2446 -10.8521 5.10465 0 0 0 
168 1 2 10.2877 -11.438 5.03772 0 0 0 
169 1 1 9.53327 -10.6925 6.94744 0 0 0 
170 1 1 8.70545 -12.231 6.23614 0 0 0 
171 1 2 9.72685 -11.6732 6.48546 0 0 0 
172 1 1 10.9622 -13.466 7.05113 0 0 0 
173 1 1 11.4895 -11.8135 7.61553 0 0 0 
174 1 2 10.6442 -12.486 7.41908 0 0 0 
175 1 1 10.819 -12.7463 9.5755 0 0 0 
176 1 1 9.39005 -11.8975 9.08945 0 0 0 
177 1 2 10.0192 -12.7059 8.82217 0 0 0 
178 1 1 8.56878 -14.0746 8.13769 0 0 0 
179 1 1 9.82939 -14.8613 8.93019 0 0 0 
180 1 2 9.18527 -14.0162 8.97584 0 0 0 
181 1 1 8.06533 -15.0374 10.5553 0 0 0 
182 1 1 9.27337 -13.7878 11.0901 0 0 0 
183 1 2 8.51721 -14.0468 10.3001 0 0 0 
184 1 1 6.9724 -13.0825 11.3905 0 0 0 
185 1 1 7.62324 -12.0909 10.0413 0 0 0 
186 1 2 7.30764 -13.0769 10.3558 0 0 0 
187 1 1 5.63933 -12.3119 9.05301 0 0 0 
188 1 1 6.23768 -13.8761 8.51439 0 0 0 
189 1 2 6.02062 -13.2704 9.427 0 0 0 
190 1 1 5.38086 -14.7933 10.7803 0 0 0 
191 1 1 4.53142 -13.3605 11.0708 0 0 0 
192 1 2 4.94278 -13.9151 10.254 0 0 0 
193 1 1 3.26764 -13.3233 8.97704 0 0 0 
194 1 1 3.9778 -14.9228 8.45589 0 0 0 
195 1 2 3.74827 -14.2895 9.43375 0 0 0 
196 1 1 2.77761 -16.083 10.4196 0 0 0 
197 1 1 2.46501 -14.5138 11.2251 0 0 0 
198 1 2 2.65402 -14.9556 10.2381 0 0 0 
199 1 1 0.515424 -15.1558 9.93999 0 0 0 
200 1 1 1.03798 -13.6768 9.50507 0 0 0 
201 1 2 1.31152 -14.7473 9.45843 0 0 0 
202 1 1 0.328287 -15.3032 7.47413 0 0 0 
203 1 1 1.96943 -14.8702 7.27313 0 0 0 
204 1 2 1.32401 -15.3195 8.00169 0 0 0 
205 1 1 2.78921 15.5158 8.19765 0 -1 0 
206 1 1 1.19861 14.9104 8.86486 0 -1 0 
207 1 2 1.71308 15.4235 8.04367 0 -1 0 
208 1 1 1.41607 13.5409 7.09466 0 -1 0 
209 1 1 0.156928 14.7886 6.79574 0 -1 0 
210 1 2 1.26468 14.6396 6.81282 0 -1 0 
211 1 1 2.00954 15.919 5.19514 0 -1 0 
212 1 1 1.30388 14.1772 4.74124 0 -1 0 
213 1 2 1.92571 14.8174 5.43842 0 -1 0 
214 1 1 4.04553 14.8779 6.08439 0 -1 0 
215 1 1 3.2216 13.2683 6.07835 0 -1 0 
216 1 2 3.33601 14.2463 5.56764 0 -1 0 
217 1 1 2.895 13.1567 3.80834 0 -1 0 
218 1 1 3.83054 14.5669 3.36924 0 -1 0 
219 1 2 3.75955 13.7863 4.16448 0 -1 0 
220 1 1 5.70304 12.9433 4.99419 0 -1 0 
221 1 1 4.53901 11.7554 4.56994 0 -1 0 
222 1 2 4.89621 12.7429 4.22624 0 -1 0 
223 1 1 4.90444 12.3669 2.09479 0 -1 0 
224 1 1 6.22585 13.4183 2.90179 0 -1 0 
225 1 2 5.62849 12.4758 2.94994 0 -1 0 
226 1 1 7.06483 11.0826 3.85565 0 -1 0 
227 1 1 5.86429 10.2777 2.95862 0 -1 0 
228 1 2 6.47236 11.2267 2.91063 0 -1 0 
229 1 1 6.50999 11.5225 0.787049 0 -1 0 
230 1 1 8.05154 11.9894 1.51133 0 -1 0 
231 1 2 7.22898 11.2451 1.60086 0 -1 0 
232 1 1 8.16761 9.40508 2.1791 0 -1 0 
233 1 1 7.08973 9.16566 0.741966 0 -1 0 
234 1 2 7.85032 9.79838 1.28197 0 -1 0 
235 1 1 9.45459 8.76757 0.284264 0 -1 0 
236 1 1 9.06385 10.2797 -0.526232 0 -1 0 
237 1 2 9.18612 9.85876 0.507479 0 -1 0 
238 1 1 10.2187 11.6346 1.18297 0 -1 0 
239 1 1 10.7477 10.2822 2.10844 0 -1 0 
240 1 2 10.4565 10.6062 1.11307 0 -1 0 
241 1 1 11.8489 9.22431 0.0272948 0 -1 0 
242 1 1 11.0746 10.533 -0.92539 0 -1 0 
243 1 2 11.5342 10.341 0.0788367 0 -1 0 
244 1 1 12.3747 12.3176 -0.0809476 0 -1 0 
245 1 1 13.2579 11.1704 0.985049 0 -1 0 
246 1 2 12.7483 11.321 -0.0362545 0 -1 0 
247 1 1 13.7995 9.87902 -1.20066 0 -1 0 
248 1 1 13.4433 11.3502 -2.02234 0 -1 0 
249 1 2 13.7671 10.953 -1.09664 0 -1 0 
250 1 1 15.555 11.069 0.118083 0 -1 0 
251 1 1 15.9377 11.1862 -1.49255 0 -1 0 
252 1 2 15.1612 11.4976 -0.774058 0 -1 0 
253 1 1 14.882 13.6141 -1.54933 0 -1 0 
254 1 1 14.8122 13.2984 0.300989 0 -1 0 
255 1 2 15.2132 13.0101 -0.687845 0 -1 0 
256 1 1 17.1436 12.4652 -0.0161091 0 -1 0 
257 1 1 17.1357 13.354 -1.64816 0 -1 0 
258 1 2 16.7406 13.3376 -0.57368 0 -1 0 
259 1 1 16.5744 14.5678 1.08747 0 -1 0 
260 1 1 18.1226 14.7059 0.307229 0 -1 0 
261 1 2 17.0721 14.6118 0.158775 0 -1 0 
262 1 1 17.1052 -16.0127 -1.42599 0 0 0 
263 1 1 15.5725 15.98 -0.700835 0 -1 0 
264 1 2 16.6514 15.9443 -0.463669 0 -1 0 
265 1 1 17.8038 -15.4144 1.25342 0 0 0 
266 1 1 17.137 -14.2566 0.108822 0 0 0 
267 1 2 16.8972 -15.21 0.59623 0 0 0 
268 1 1 14.8507 -14.5564 0.999234 0 0 0 
269 1 1 15.1885 16.0679 1.69152 0 -1 0 
270 1 2 15.6467 -15.1075 1.55424 0 0 0 
271 1 1 16.7418 -15.0247 3.3692 0 0 0 
272 1 1 16.2426 -13.3937 2.72901 0 0 0 
273 1 2 15.9075 -14.4823 2.90911 0 0 0 
274 1 1 13.8865 -13.9532 3.50846 0 0 0 
275 1 1 14.4016 -15.6339 3.91513 0 0 0 
276 1 2 14.7278 -14.5325 3.91348 0 0 0 
277 1 1 15.9596 -14.5642 5.62482 0 0 0 
278 1 1 14.3362 -14.4676 6.08033 0 0 0 
279 1 2 15.0704 -14.1116 5.32104 0 0 0 
280 1 1 16.0982 -12.1887 4.89622 0 0 0 
281 1 1 14.2746 -12.0617 5.06366 0 0 0 
282 1 2 15.2157 -12.6044 5.42015 0 0 0 
283 1 1 14.2273 -12.6396 7.36412 0 0 0 
284 1 1 16.0215 -12.8046 7.39358 0 0 0 
285 1 2 15.1704 -12.2865 6.91284 0 0 0 
286 1 1 15.8663 -9.96821 7.00173 0 0 0 
287 1 1 14.191 -10.2936 6.88886 0 0 0 
288 1 2 15.1127 -10.7545 7.32229 0 0 0 
289 1 1 14.4252 -9.73257 8.90896 0 0 0 
290 1 1 14.2324 -11.4404 9.12581 0 0 0 
291 1 2 14.9592 -10.6524 8.80654 0 0 0 
292 1 1 16.705 -11.5581 9.89028 0 0 0 
293 1 1 17.0696 -9.96297 9.24363 0 0 0 
294 1 2 16.2717 -10.5809 9.70898 0 0 0 
295 1 1 16.6515 -9.8233 11.8053 0 0 0 
296 1 1 15.2366 -9.0922 10.9169 0 0 0 
297 1 2 15.806 -10.0008 11.0924 0 0 0 
298 1 1 15.4542 -11.8988 12.2343 0 0 0 
299 1 1 14.3883 -10.5548 12.7439 0 0 0 
300 1 2 14.8789 -10.9693 11.8945 0 0 0 
301 1 1 14.0673 -11.3207 11.2526 0 0 0 
302 2 3 26.3375 -1.90123 10.6982 0 -1 0 
303 2 1 26.9545 -2.62533 10.8271 0 -1 0 
304 2 1 25.5031 -2.25435 10.3809 0 -1 0 
305 3 3 24.1595 -3.83944 11.8778 0 0 0 
306 3 1 24.0054 -4.3314 11.068 0 0 0 
307 3 1 24.376 -4.45563 12.5815 0 0 0 
308 4 3 24.1685 1.35983 -11.6557 0 0 0 
309 4 1 25.1228 1.26701 -11.6076 0 0 0 
310 4 1 23.759 0.605497 -11.2257 0 0 0 
311 5 3 26.9459 -12.9583 2.37916 0 -1 0 
312 5 1 26.1836 -12.997 2.96147 0 -1 0 
313 5 1 27.6581 -13.476 2.76178 0 -1 0 
314 6 3 14.5179 13.9681 11.3054 0 -1 -1 
315 6 1 14.2283 14.229 12.1827 0 -1 -1 
316 6 1 14.7909 14.7506 10.8208 0 -1 -1 
317 7 3 18.7997 -0.981332 12.1808 0 0 -1 
318 7 1 18.8966 -0.376244 11.4418 0 0 -1 
319 7 1 18.0054 -0.75325 12.6694 0 0 -1 
320 8 3 -29.9291 0.728011 11.3728 0 -1 -1 
321 8 1 -29.9819 -0.105165 10.8988 0 -1 -1 
322 8 1 -30.0635 1.44905 10.7534 0 -1 -1 
323 9 3 -3.21417 10.8271 -15.1612 0 0 1 
324 9 1 -3.67618 11.5236 -14.6889 0 0 1 
325 9 1 -3.85803 10.2699 -15.6045 0 0 1 
326 10 3 -18.7777 6.01959 7.50012 0 -1 0 
327 10 1 -17.9051 6.39488 7.36101 0 -1 0 
328 10 1 -19.3652 6.32929 6.80694 0 -1 0 
329 11 3 -34.4757 -4.24826 13.1864 0 1 -1 
330 11 1 -34.0638 -4.16395 14.0495 0 1 -1 
331 11 1 -33.9911 -3.71138 12.5551 0 1 -1 
332 12 3 -1.00093 -8.34798 -8.75069 0 0 0 
333 12 1 -0.231507 -8.30594 -9.32328 0 0 0 
334 12 1 -0.727848 -8.65209 -7.88203 0 0 0 
335 13 3 -24.7103 -9.00438 3.07108 0 0 -1 
336 13 1 -24.796 -9.73526 2.45455 0 0 -1 
337 13 1 -25.1934 -8.2486 2.72897 0 0 -1 
338 14 3 25.4481 8.12889 11.9575 0 -1 1 
339 14 1 24.9258 8.51768 12.6629 0 -1 1 
340 14 1 25.0505 7.29463 11.6975 0 -1 1 
341 15 3 -26.9315 13.874 -6.43912 0 0 0 
342 15 1 -27.5028 14.2819 -5.78422 0 0 0 
343 15 1 -26.44 13.1611 -6.02459 0 0 0 
344 16 3 -7.14895 10.5876 15.5573 0 0 0 
345 16 1 -8.05466 10.5717 15.2394 0 0 0 
346 16 1 -6.97442 9.77886 16.0443 0 0 0 
347 17 3 -42.4645 5.95407 -9.35946 0 -1 -1 
348 17 1 -42.9367 5.12764 -9.2343 0 -1 -1 
349 17 1 -42.9023 6.46339 -10.0455 0 -1 -1 
350 18 3 37.0656 15.5341 7.60658 0 0 0 
351 18 1 36.8852 15.9158 6.74441 0 0 0 
352 18 1 37.5582 -16.0314 8.13244 0 1 0 
353 19 3 -23.3838 1.3849 -14.9322 0 -1 0 
354 19 1 -23.6893 1.01999 -15.7659 0 -1 0 
355 19 1 -23.7844 0.894303 -14.2108 0 -1 0 
356 20 3 -41.1992 -4.93754 -12.6004 0 -1 0 
357 20 1 -41.0396 -4.6915 -13.5146 0 -1 0 
358 20 1 -42.1132 -5.21578 -12.5067 0 -1 0 
359 21 3 -29.1643 13.9524 -15.9269 0 -2 -1 
360 21 1 -28.821 14.6291 15.6849 0 -2 -2 
361 21 1 -29.89 13.4989 15.8376 0 -2 -2 
362 22 3 -32.7668 -0.947781 8.16286 0 -1 -1 
363 22 1 -32.9501 -0.0244097 7.97462 0 -1 -1 
364 22 1 -33.5071 -1.32103 8.64683 0 -1 -1 
365 23 3 -24.7963 8.3096 -5.3779 0 0 -1 
366 23 1 -25.6577 8.45918 -5.77445 0 0 -1 
367 23 1 -24.8153 7.4816 -4.89241 0 0 -1 
368 24 3 -48.0983 -5.95272 -12.2258 0 1 -1 
369 24 1 -47.9081 -6.42321 -11.4109 0 1 -1 
370 24 1 -48.2557 -6.59077 -12.9256 0 1 -1 
371 25 3 -67.1036 3.86099 1.8158 0 -1 0 
372 25 1 -67.0066 2.90859 1.88765 0 -1 0 
373 25 1 -68.0328 4.07258 1.69978 0 -1 0 
374 26 3 -46.1087 -3.45335 -2.60372 0 -1 -1 
375 26 1 -47.0562 -3.60785 -2.60049 0 -1 -1 
376 26 1 -45.7414 -3.78136 -3.42779 0 -1 -1 
377 27 3 -31.7041 8.90143 3.963 0 -1 -1 
378 27 1 -31.5764 9.42427 4.75797 0 -1 -1 
379 27 1 -30.8584 8.79149 3.52203 0 -1 -1 
380 28 3 -56.1924 1.7268 0.348949 0 -2 0 
381 28 1 -56.5401 1.55902 1.22792 0 -2 0 
382 28 1 -56.6131 2.51197 -0.00898713 0 -2 0 
383 29 3 -43.9429 8.16893 -7.25876 0 -1 -1 
384 29 1 -43.8144 8.69625 -6.4669 0 -1 -1 
385 29 1 -43.5944 7.28735 -7.1072 0 -1 -1 
386 30 3 -78.5672 2.49086 -6.40262 0 0 0 
387 30 1 -77.6937 2.82433 -6.18486 0 0 0 
388 30 1 -78.5076 1.95257 -7.1953 0 0 0 
389 31 3 -31.7565 15.0366 4.84522 0 0 -2 
390 31 1 -31.1894 15.1751 4.08303 0 0 -2 
391 31 1 -32.59 15.4908 4.70132 0 0 -2 
392 32 3 -62.7607 -14.7688 -15.8134 0 0 0 
393 32 1 -63.6428 -14.7434 -15.4355 0 0 0 
394 32 1 -62.7981 -15.2104 15.5347 0 0 -1 
395 33 3 51.5134 -8.29202 -9.56063 -1 0 0 
396 33 1 52.1257 -8.33254 -8.82239 -1 0 0 
397 33 1 50.8307 -8.95563 -9.43723 -1 0 0 
398 34 3 -75.0711 -7.86875 11.4041 0 -1 -2 
399 34 1 -75.5024 -7.66604 10.5707 0 -1 -2 
400 34 1 -75.7416 -8.01956 12.0744 0 -1 -2 
401 35 3 -65.9116 10.7771 5.72022 0 -1 -1 
402 35 1 -65.7071 10.2077 6.46556 0 -1 -1 
403 35 1 -65.173 10.7667 5.10706 0 -1 -1 
404 36 3 -38.0238 0.794141 12.852 0 -1 -2 
405 36 1 -38.4854 0.358715 12.1316 0 -1 -2 
406 36 1 -37.6597 0.126969 13.4385 0 -1 -2 
407 37 3 50.3295 -5.40994 12.7546 0 0 -1 
408 37 1 49.5191 -5.6234 13.2229 0 0 -1 
409 37 1 50.4949 -6.08514 12.0925 0 0 -1 
410 38 3 38.7372 2.40431 -9.80398 0 0 0 
411 38 1 37.943 2.67508 -9.33747 0 0 0 
412 38 1 39.2285 1.78968 -9.25401 0 0 0 
413 39 3 62.3254 -1.63878 -8.9801 0 1 0 
414 39 1 62.7654 -1.12218 -9.65923 0 1 0 
415 39 1 62.7419 -2.502 -8.92512 0 1 0 
416 40 3 62.4025 -8.24302 15.4375 0 0 -1 
417 40 1 63.0943 -7.59054 15.5691 0 0 -1 
418 40 1 61.7214 -8.11472 -16.0981 0 0 0 
419 41 3 36.103 14.181 15.6543 0 0 -1 
420 41 1 36.6226 14.3205 -15.7504 0 0 0 
421 41 1 36.1568 13.2557 15.4041 0 0 -1 
422 42 3 52.3949 -15.1618 -1.80371 0 0 0 
423 42 1 53.3089 -14.8861 -1.70281 0 0 0 
424 42 1 52.3736 -16.0897 -2.04914 0 0 0 
425 43 3 56.6233 -11.34 -3.69242 0 -1 0 
426 43 1 55.9458 -11.7338 -4.24707 0 -1 0 
427 43 1 57.4658 -11.382 -4.1507 0 -1 0 
428 44 3 18.136 -5.1287 8.15131 0 0 -1 
429 44 1 18.6189 -4.68975 7.44716 0 0 -1 
430 44 1 18.3411 -4.69985 8.98538 0 0 -1 
431 45 3 46.4191 13.0213 9.32209 0 -1 -1 
432 45 1 46.6461 12.2152 9.79154 0 -1 -1 
433 45 1 47.2219 13.4179 8.97575 0 -1 -1 
434 46 3 36.2765 -7.55421 2.32757 0 0 -1 
435 46 1 35.9402 -6.69636 2.05808 0 0 -1 
436 46 1 35.7842 -8.24041 1.87106 0 0 -1 
437 47 3 64.1971 10.2187 8.07931 0 -1 0 
438 47 1 64.3037 9.91915 8.98515 0 -1 0 
439 47 1 63.5905 9.62962 7.62464 0 -1 0 
440 48 3 45.9207 -6.65242 -8.29868 0 0 1 
441 48 1 45.5354 -6.99488 -9.10857 0 0 1 
442 48 1 46.5898 -6.00114 -8.52186 0 0 1 
443 49 3 73.5182 3.81702 1.02333 0 -1 -1 
444 49 1 72.7066 3.52603 0.60112 0 -1 -1 
445 49 1 73.525 4.77633 1.05983 0 -1 -1 
446 50 3 -75.5678 2.36352 -10.2105 1 0 0 
447 50 1 -76.4695 2.29511 -9.8883 1 0 0 
448 50 1 -75.0408 2.84087 -9.56552 1 0 0 
449 51 3 52.6131 -7.04961 -6.47042 0 0 0 
450 51 1 52.9639 -6.4984 -7.17379 0 0 0 
451 51 1 52.0756 -6.50822 -5.88763 0 0 0 
452 52 3 15.5832 -8.06757 -3.91274 0 0 0 
453 52 1 16.3442 -8.25267 -4.46805 0 0 0 
454 52 1 14.8099 -8.49323 -4.29017 0 0 0 
455 53 3 7.93298 -12.1208 -0.750715 0 0 0 
456 53 1 6.99139 -12.2941 -0.679844 0 0 0 
457 53 1 8.07524 -11.4275 -1.39935 0 0 0 
458 54 3 11.6108 7.2554 5.70024 0 0 -1 
459 54 1 12.0258 6.83523 4.94336 0 0 -1 
460 54 1 11.7931 8.19756 5.67364 0 0 -1 
461 55 3 12.4587 11.4686 -10.1413 0 -1 0 
462 55 1 12.6669 11.55 -9.2077 0 -1 0 
463 55 1 12.918 12.1588 -10.6254 0 -1 0 
464 56 3 32.3939 -2.73181 2.66252 0 0 -1 
465 56 1 31.688 -3.2289 3.08228 0 0 -1 
466 56 1 32.4414 -1.85946 3.06052 0 0 -1 
467 57 3 36.274 6.73622 13.8046 0 0 0 
468 57 1 37.044 6.58941 14.3589 0 0 0 
469 57 1 35.8043 7.51136 14.121 0 0 0 
470 58 3 -12.0383 1.05268 -6.26281 0 0 1 
471 58 1 -11.6499 0.420338 -6.87183 0 0 1 
472 58 1 -12.6326 1.62962 -6.74821 0 0 1 
473 59 3 4.22413 9.5763 0.391336 0 -1 0 
474 59 1 3.88605 8.83277 -0.113145 0 -1 0 
475 59 1 4.47476 10.2772 -0.214904 0 -1 0 
476 60 3 19.5602 -11.3875 15.6642 0 0 -1 
477 60 1 19.4495 -10.9322 14.8263 0 0 -1 
478 60 1 18.9532 -12.1305 15.6988 0 0 -1 
479 61 3 -1.45978 0.678564 13.7619 0 -1 -1 
480 61 1 -0.510329 0.820455 13.7544 0 -1 -1 
481 61 1 -1.6957 0.103718 13.0301 0 -1 -1 
482 62 3 0.311741 1.15868 7.4997 0 -1 0 
483 62 1 1.1285 1.65495 7.59058 0 -1 0 
484 62 1 -0.349849 1.53586 8.08423 0 -1 0 
485 63 3 -7.04725 -14.7495 -2.69852 0 0 -1 
486 63 1 -7.59469 -14.0448 -3.05245 0 0 -1 
487 63 1 -7.52161 -15.1867 -1.98753 0 0 -1 
488 64 3 8.63617 2.57098 14.3474 0 -1 -1 
489 64 1 9.40763 2.3101 14.8558 0 -1 -1 
490 64 1 8.89992 2.72882 13.4379 0 -1 -1 
491 65 3 2.15579 3.36319 -12.0906 0 1 0 
492 65 1 2.30224 3.40403 -11.1427 0 1 0 
493 65 1 2.36289 4.21773 -12.476 0 1 0 
494 66 3 6.73876 -13.4372 15.1347 0 1 -1 
495 66 1 6.55267 -14.3648 15.2977 0 1 -1 
496 66 1 7.68605 -13.3223 15.0294 0 1 -1 
497 67 3 -32.897 -5.24264 15.8368 0 -1 -1 
498 67 1 -32.0438 -4.96341 -16.0229 0 -1 0 
499 67 1 -32.982 -6.19246 15.9475 0 -1 -1 
500 68 3 -17.6202 13.0164 -12.3708 0 -1 0 
501 68 1 -18.5586 12.8645 -12.5053 0 -1 0 
502 68 1 -17.1503 12.1866 -12.4813 0 -1 0 
503 69 3 -15.7817 -15.4243 9.00056 0 0 -1 
504 69 1 -16.7415 -15.4062 8.99089 0 0 -1 
505 69 1 -15.4679 -15.8035 8.17636 0 0 -1 
506 70 3 -54.7808 7.17344 6.19196 0 0 0 
507 70 1 -54.533 6.25643 6.0529 0 0 0 
508 70 1 -55.7375 7.23446 6.2427 0 0 0 
509 71 3 -11.0016 -12.9459 10.9496 0 0 -1 
510 71 1 -10.2194 -13.4645 11.1516 0 0 -1 
511 71 1 -11.6183 -13.4903 10.4547 0 0 -1 
512 72 3 -42.1878 7.24214 -12.4059 0 -1 1 
513 72 1 -41.2792 6.94766 -12.3098 0 -1 1 
514 72 1 -42.7253 6.50501 -12.7048 0 -1 1 
515 73 3 -72.7199 -10.1609 -9.94069 0 0 0 
516 73 1 -72.567 -11.0924 -9.76557 0 0 0 
517 73 1 -71.8796 -9.7359 -10.1271 0 0 0 
518 74 3 -56.9395 8.42523 -8.72094 0 -1 -1 
519 74 1 -57.804 8.02194 -8.6138 0 -1 -1 
520 74 1 -56.3221 8.00635 -8.11671 0 -1 -1 
521 75 3 -54.0628 3.21304 3.00184 0 -1 -1 
522 75 1 -53.3951 2.52338 3.01616 0 -1 -1 
523 75 1 -54.0594 3.63353 2.13881 0 -1 -1 
524 76 3 40.9899 -0.299709 -1.93912 -1 0 -2 
525 76 1 40.3553 0.0254614 -1.29631 -1 0 -2 
526 76 1 40.9108 -1.25445 -2.00107 -1 0 -2 
527 77 3 -55.2288 -4.8823 -3.8587 0 0 0 
528 77 1 -55.472 -4.01713 -3.52115 0 0 0 
529 77 1 -54.2986 -4.87503 -4.09588 0 0 0 
530 78 3 -43.5239 -15.5349 -0.630867 0 0 -1 
531 78 1 -43.6482 -14.7572 -1.17985 0 0 -1 
532 78 1 -42.7496 -16.013 -0.936778 0 0 -1 
533 79 3 -49.5568 4.07977 9.41986 0 -1 -1 
534 79 1 -50.2171 4.70068 9.10339 0 -1 -1 
535 79 1 -48.7799 4.56724 9.70353 0 -1 -1 
536 80 3 -65.5944 -0.931122 7.18563 0 0 -1 
537 80 1 -64.9819 -1.1116 6.46876 0 0 -1 
538 80 1 -66.4828 -0.862795 6.82802 0 0 -1 
539 81 3 -75.6931 10.6217 11.7814 0 -1 -1 
540 81 1 -75.302 10.2018 11.0118 0 -1 -1 
541 81 1 -75.418 10.1478 12.5697 0 -1 -1 
542 82 3 -72.0768 -6.02122 -11.2654 0 0 -1 
543 82 1 -72.7046 -6.69433 -10.9925 0 0 -1 
544 82 1 -72.5107 -5.41658 -11.8719 0 0 -1 
545 83 3 -46.1865 -8.38349 -13.6957 0 -1 0 
546 83 1 -46.5318 -9.10484 -13.1646 0 -1 0 
547 83 1 -46.7839 -8.22182 -14.4296 0 -1 0 
548 84 3 78.7046 15.1979 -3.27867 -1 -1 -1 
549 84 1 79.2392 14.9253 -4.02805 -1 -1 -1 
550 84 1 78.7171 14.5029 -2.61649 -1 -1 -1 
551 85 3 59.2509 8.70084 -14.0121 -1 -1 -1 
552 85 1 60.0653 8.19302 -14.0338 -1 -1 -1 
553 85 1 59.2314 9.29265 -14.7678 -1 -1 -1 
554 86 3 35.8455 10.7666 3.55379 0 0 0 
555 86 1 35.0662 10.5799 3.02508 0 0 0 
556 86 1 35.5708 11.0018 4.4431 0 0 0 
557 87 3 21.1927 4.67906 9.64418 0 -2 -1 
558 87 1 20.2982 4.47194 9.36396 0 -2 -1 
559 87 1 21.7614 3.92936 9.45385 0 -2 -1 
560 88 3 48.4593 -0.287911 -6.56479 0 -1 0 
561 88 1 48.8812 -0.404965 -5.71039 0 -1 0 
562 88 1 47.538 -0.0548382 -6.42915 0 -1 0 
563 89 3 35.2529 5.08453 0.765685 0 0 -1 
564 89 1 35.8033 4.43725 0.318854 0 0 -1 
565 89 1 34.3398 4.78919 0.740168 0 0 -1 
566 90 3 65.0239 -15.1563 7.75376 0 0 -1 
567 90 1 64.4555 -15.1895 8.52676 0 0 -1 
568 90 1 65.7366 -15.7902 7.8624 0 0 -1 
569 91 3 -73.7525 1.32177 -2.81221 1 0 0 
570 91 1 -72.8319 1.19024 -2.57364 1 0 0 
571 91 1 -74.2876 0.657948 -2.37105 1 0 0 
572 92 3 30.09 -15.6402 15.3689 0 1 -1 
573 92 1 30.6846 -14.9205 15.1449 0 1 -1 
574 92 1 29.7396 -15.4932 -15.9493 0 1 0 
575 93 3 67.7874 9.58719 12.7837 0 0 -1 
576 93 1 67.4741 9.80874 13.6637 0 0 -1 
577 93 1 68.4774 8.92352 12.8555 0 0 -1 
578 94 3 40.3518 -4.78838 3.93787 0 0 -1 
579 94 1 39.9374 -5.6532 3.98299 0 0 -1 
580 94 1 40.1576 -4.39291 3.0849 0 0 -1 
581 95 3 78.4813 15.2806 0.146734 0 0 0 
582 95 1 78.0472 14.4411 0.315296 0 0 0 
583 95 1 78.4215 15.827 0.933842 0 0 0 
584 96 3 78.6612 10.466 9.34896 0 -1 0 
585 96 1 78.1588 11.2008 9.70843 0 -1 0 
586 96 1 78.8913 9.86603 10.0622 0 -1 0 
587 97 3 -68.8225 -15.4644 -6.22163 1 1 0 
588 97 1 -69.6567 -15.6113 -6.67338 1 1 0 
589 97 1 -68.5972 15.9497 -5.71803 1 0 0 
590 98 3 71.8975 -3.95406 -5.94562 0 0 0 
591 98 1 72.7586 -3.535 -5.87806 0 0 0 
592 98 1 71.2171 -3.27762 -5.91128 0 0 0 
593 99 3 53.896 7.50195 -9.11783 0 0 -1 
594 99 1 53.3651 7.93086 -9.79297 0 0 -1 
595 99 1 53.9345 6.56051 -9.30182 0 0 -1 
596 100 3 43.8019 -8.01613 9.59397 0 0 0 
597 100 1 44.4082 -7.72132 10.2775 0 0 0 
598 100 1 43.234 -8.7013 9.95419 0 0 0 
599 101 3 5.48016 4.58718 5.31608 0 -1 0 
600 101 1 5.65346 4.38521 4.39369 0 -1 0 
601 101 1 5.68724 5.51049 5.47812 0 -1 0 
602 102 3 34.2566 -14.8622 9.78721 0 0 -1 
603 102 1 34.7082 -15.5658 10.2589 0 0 -1 
604 102 1 34.8469 -14.504 9.12023 0 0 -1 
605 103 3 26.6115 -6.71928 -11.1402 0 0 0 
606 103 1 25.9943 -6.22226 -10.5982 0 0 0 
607 103 1 26.1763 -7.51205 -11.4623 0 0 0 
608 104 3 -15.7492 -2.40091 7.0791 0 -1 -1 
609 104 1 -15.8573 -2.28566 6.13217 0 -1 -1 
610 104 1 -16.6121 -2.53418 7.47824 0 -1 -1 
611 105 3 -2.34627 2.91843 -9.80156 0 -1 0 
612 105 1 -2.78066 3.50039 -10.4295 0 -1 0 
613 105 1 -2.39332 3.3114 -8.92692 0 -1 0 
614 106 3 -8.86791 8.18217 12.3219 0 -1 -1 
615 106 1 -9.77359 7.90628 12.4808 0 -1 -1 
616 106 1 -8.27385 7.58459 12.782 0 -1 -1 
617 107 3 15.8516 9.88988 14.8296 0 -1 0 
618 107 1 15.7326 10.2415 15.715 0 -1 0 
619 107 1 15.3697 10.4398 14.2075 0 -1 0 
620 108 3 -38.406 5.40924 -10.734 0 -1 -1 
621 108 1 -39.311 5.60319 -10.479 0 -1 -1 
622 108 1 -38.4132 4.89074 -11.542 0 -1 -1 
623 109 3 3.89574 -15.8341 -8.29726 0 0 0 
624 109 1 4.02631 -15.9316 -7.35117 0 0 0 
625 109 1 3.44754 -15.0022 -8.46682 0 0 0 
626 110 3 -3.94366 3.51691 0.193193 0 0 1 
627 110 1 -3.03996 3.72328 -0.0565553 0 0 1 
628 110 1 -4.50617 4.26414 -0.0233097 0 0 1 
629 111 3 6.55992 6.61907 3.08206 0 -1 0 
630 111 1 6.78395 6.16642 2.26563 0 -1 0 
631 111 1 6.76443 7.55235 2.98826 0 -1 0 
632 112 3 -12.0066 -11.4742 -2.581 0 0 1 
633 112 1 -11.789 -10.9612 -3.36275 0 0 1 
634 112 1 -12.8924 -11.8315 -2.67827 0 0 1 
635 113 3 -6.30372 -2.70936 -13.0898 0 0 0 
636 113 1 -5.8683 -2.90963 -13.9217 0 0 0 
637 113 1 -5.68261 -2.84698 -12.3709 0 0 0 
638 114 3 -18.7767 15.7537 -1.52445 0 0 -1 
639 114 1 -17.9569 15.7451 -1.0249 0 0 -1 
640 114 1 -19.3785 -15.8127 -1.1267 0 1 -1 
641 115 3 5.48477 1.17574 8.62735 0 0 -1 
642 115 1 5.22718 1.67479 7.84873 0 0 -1 
643 115 1 5.51961 0.242886 8.40329 0 0 -1 
644 116 3 -4.0514 -7.45083 -3.93258 0 0 1 
645 116 1 -4.80144 -6.9329 -4.23395 0 0 1 
646 116 1 -3.44312 -6.87577 -3.46254 0 0 1 
647 117 3 -47.3365 -11.3089 -4.36611 0 -1 0 
648 117 1 -47.8334 -10.7433 -3.77053 0 -1 0 
649 117 1 -46.3986 -11.1456 -4.2425 0 -1 0 
650 118 3 -7.22389 -10.9945 -3.07503 0 -1 -1 
651 118 1 -6.86237 -11.5354 -3.78099 0 -1 -1 
652 118 1 -6.88416 -11.3099 -2.23435 0 -1 -1 
653 119 3 -20.2753 -10.1181 -11.5325 0 0 -1 
654 119 1 -19.643 -10.6139 -12.0578 0 0 -1 
655 119 1 -20.9364 -9.73817 -12.1158 0 0 -1 
656 120 3 -16.0793 6.02854 2.77146 0 0 -1 
657 120 1 -16.5232 6.37479 1.99385 0 0 -1 
658 120 1 -15.3098 5.52594 2.49422 0 0 -1 
659 121 3 -49.2761 -15.0133 1.76375 0 -1 -1 
660 121 1 -49.3289 -15.4438 2.62024 0 -1 -1 
661 121 1 -50.0904 -14.5299 1.60618 0 -1 -1 
662 122 3 -31.3836 -3.51695 13.1466 0 0 -1 
663 122 1 -30.5497 -3.04586 13.2122 0 0 -1 
664 122 1 -31.3592 -4.27842 13.7307 0 0 -1 
665 123 3 -63.2922 2.40142 -15.6027 0 0 -1 
666 123 1 -63.1606 2.52724 15.6545 0 0 -2 
667 123 1 -62.5078 1.99287 -15.2294 0 0 -1 
668 124 3 -61.0723 -3.95501 -14.1566 0 1 0 
669 124 1 -61.2548 -3.39477 -14.9146 0 1 0 
670 124 1 -61.474 -4.81511 -14.2998 0 1 0 
671 125 3 -34.028 -10.8671 -14.4418 0 -1 -1 
672 125 1 -34.8933 -10.4518 -14.4627 0 -1 -1 
673 125 1 -33.5982 -10.7369 -15.2903 0 -1 -1 
674 126 3 -58.9589 15.0235 2.18392 0 -1 0 
675 126 1 -58.6733 14.2084 1.76492 0 -1 0 
676 126 1 -59.8864 14.9457 2.41917 0 -1 0 
677 127 3 -55.2908 5.96604 -4.02627 0 1 -1 
678 127 1 -56.0751 5.81273 -3.49431 0 1 -1 
679 127 1 -54.6962 6.54718 -3.54624 0 1 -1 
680 128 3 75.8634 -7.27319 -13.6143 -1 0 0 
681 128 1 75.8155 -6.33923 -13.3973 -1 0 0 
682 128 1 75.57 -7.78536 -12.8571 -1 0 0 
683 129 3 72.0495 13.582 3.56631 -1 0 -1 
684 129 1 71.0918 13.6352 3.60477 -1 0 -1 
685 129 1 72.3699 14.1923 2.89801 -1 0 -1 
686 130 3 -53.2977 8.50721 15.2963 0 -1 -1 
687 130 1 -53.3278 9.27705 14.7236 0 -1 -1 
688 130 1 -52.5417 8.58367 15.8831 0 -1 -1 
689 131 3 78.5273 -8.71227 12.1958 -1 1 -1 
690 131 1 79.1799 -8.77147 12.8974 -1 1 -1 
691 131 1 78.9789 -8.57726 11.3595 -1 1 -1 
692 132 3 -45.2051 -2.70196 -10.0294 0 0 0 
693 132 1 -45.9135 -3.08006 -9.50322 0 0 0 
694 132 1 -45.1499 -3.17327 -10.864 0 0 0 
695 133 3 -57.5698 9.07771 -0.457003 0 -1 0 
696 133 1 -56.905 8.39143 -0.363381 0 -1 0 
697 133 1 -58.2792 8.75154 -1.01554 0 -1 0 
698 134 3 -72.7766 -15.2043 14.8771 0 0 0 
699 134 1 -73.6808 -15.5212 14.8161 0 0 0 
700 134 1 -72.3021 -15.4581 14.082 0 0 0 
701 135 3 20.9759 -3.20444 -12.5731 0 0 1 
702 135 1 20.7268 -4.10865 -12.7781 0 0 1 
703 135 1 20.4457 -2.60609 -13.1047 0 0 1 
704 136 3 34.3569 -3.12314 -0.0206476 0 0 0 
705 136 1 33.6662 -3.59101 0.454308 0 0 0 
706 136 1 34.3325 -2.1956 0.225742 0 0 0 
707 137 3 18.3822 15.1858 3.36637 0 -1 -1 
708 137 1 18.242 14.8986 4.27161 0 -1 -1 
709 137 1 18.6742 14.4363 2.84228 0 -1 -1 
710 138 3 55.8477 10.3817 5.6406 0 0 -1 
711 138 1 54.9587 10.0816 5.8434 0 0 -1 
712 138 1 55.7956 11.2105 5.15888 0 0 -1 
713 139 3 43.8664 15.171 -1.15704 0 -1 0 
714 139 1 44.214 14.8616 -1.99672 0 -1 0 
715 139 1 44.4957 15.78 -0.763615 0 -1 0 
716 140 3 18.227 -9.91518 -13.9734 0 0 2 
717 140 1 18.572 -10.5005 -13.2951 0 0 2 
718 140 1 18.8812 -9.8243 -14.6701 0 0 2 
719 141 3 48.6502 13.8754 6.24575 0 -1 -2 