LAMMPS Description

     75  atoms
     50  bonds
     25  angles
     0  dihedrals
     0  impropers

     2  atom types
     1  bond types
     1  angle types

  -100.0 100.0 xlo xhi
  -100.0 100.0 ylo yhi
  -100.0 100.0 zlo zhi

Masses

    1 15.9994
    2 1.008

Atoms

1 1 1 -0.82 1.0 1.0 1.577359
2 1 2 0.41 1.0 1.8164904 2.1546718
3 1 2 0.41 1.0 1.8164904 1.0
4 2 1 -0.82 5.36485539563 1.0 0.101861515161
5 2 2 0.41 5.83485470506 1.8164904 0.437108764491
6 2 2 0.41 4.89481847407 1.8164904 -0.233412562645
7 3 1 -0.82 6.69831442542 1.0 -4.30846074839
8 3 2 0.41 7.24417440175 1.8164904 -4.49641541123
9 3 2 0.41 6.15241076613 1.8164904 -4.1204910443
10 4 1 -0.82 3.88214622963 1.0 -7.95513761172
11 4 2 0.41 4.04611192352 1.8164904 -8.50867651755
12 4 2 0.41 3.71816741422 1.8164904 -7.40155440842
13 5 1 -0.82 -0.722027190315 1.0 -7.78008741428
14 5 2 0.41 -1.07745644049 1.8164904 -8.23501610888
15 5 2 0.41 -0.366569496583 1.8164904 -7.32512231359
16 6 1 -0.82 -3.25317322165 1.0 -3.93010621685
17 6 2 0.41 -3.82993654779 1.8164904 -3.9049241862
18 6 2 0.41 -2.67636373949 1.8164904 -3.95529026272
19 7 1 -0.82 -1.58868776518 1.0 0.366234507267
20 7 2 0.41 -1.90311485148 1.8164904 0.850409761125
21 7 2 0.41 -1.27423551656 1.8164904 -0.117979493172
22 8 1 -0.82 2.87560151478 1.0 1.50604882431
23 8 2 0.41 3.08718736418 1.8164904 2.04319079565
24 8 2 0.41 2.66399873302 1.8164904 0.968863867678
25 9 1 -0.82 6.39596801835 1.0 -1.46650481407
26 9 2 0.41 6.95613216092 1.8164904 -1.32684020714
27 9 2 0.41 5.83575904813 1.8164904 -1.60618059779
28 10 1 -0.82 6.02025320601 1.0 -6.05866049875
29 10 2 0.41 6.45924530315 1.8164904 -6.43359516998
30 10 2 0.41 5.58122597812 1.8164904 -5.68369582301
31 11 1 -0.82 2.06352929838 1.0 -8.41946361872
32 11 2 0.41 2.0132131725 1.8164904 -8.99457956922
33 11 2 0.41 2.11384945085 1.8164904 -7.84430164402
34 12 1 -0.82 -2.15611842547 1.0 -6.56915863328
35 12 2 0.41 -2.65354796865 1.8164904 -6.86216702671
36 12 2 0.41 -1.65864907503 1.8164904 -6.27612679158
37 13 1 -0.82 -3.10011832844 1.0 -2.05940036529
38 13 2 0.41 -3.62751981451 1.8164904 -1.82458609501
39 13 2 0.41 -2.57267463656 1.8164904 -2.2942334268
40 14 1 -0.82 0.0231623277321 1.0 1.3279545608
41 14 2 0.41 -0.0919353327165 1.8164904 1.89367763582
42 14 2 0.41 0.138269198979 1.8164904 0.762186213269
43 15 1 -0.82 4.5945588478 1.0 0.752290328061
44 15 2 0.41 4.98828523064 1.8164904 1.17451018133
45 15 2 0.41 4.20080095663 1.8164904 0.330036686247
46 16 1 -0.82 6.78052513349 1.0 -3.30364444094
47 16 2 0.41 7.35289894245 1.8164904 -3.37899888244
48 16 2 0.41 6.20810551977 1.8164904 -3.22828396912
49 17 1 -0.82 4.74792277979 1.0 -7.43856682525
50 17 2 0.41 5.01895472222 1.8164904 -7.94830377233
51 17 2 0.41 4.47686914777 1.8164904 -6.92878908598
52 18 1 -0.82 0.201280104948 1.0 -8.18495535666
53 18 2 0.41 -0.0563156038921 1.8164904 -8.70161241877
54 18 2 0.41 0.458896428127 1.8164904 -7.66825694858
55 19 1 -0.82 -3.04661522104 1.0 -4.91689302495
56 19 2 0.41 -3.61682034248 1.8164904 -5.00720464398
57 19 2 0.41 -2.4763644684 1.8164904 -4.82657417865
58 20 1 -0.82 -2.27209737748 1.0 -0.374957582592
59 20 2 0.41 -2.6767412674 1.8164904 0.03681103131
60 20 2 0.41 -1.86742110555 1.8164904 -0.786759148666
61 21 1 -0.82 1.87532755052 1.0 1.63201075775
62 21 2 0.41 1.97557686618 1.8164904 2.2005528791
63 21 2 0.41 1.77507021231 1.8164904 1.06342313828
64 22 1 -0.82 5.91765353552 1.0 -0.579019790104
65 22 2 0.41 6.43872757327 1.8164904 -0.330480223374
66 22 2 0.41 5.39653779833 1.8164904 -0.827579246446
67 23 1 -0.82 6.46500990239 1.0 -5.15389207905
68 23 2 0.41 6.96993905445 1.8164904 -5.43377887838
69 23 2 0.41 5.9600403429 1.8164904 -4.87398288151
70 24 1 -0.82 3.05838683753 1.0 -8.25614525158
71 24 2 0.41 3.12374050184 1.8164904 -8.82974700158
72 24 2 0.41 2.99302794323 1.8164904 -7.68249759856
73 25 1 -0.82 -1.44544169486 1.0 -7.28424813594
74 25 2 0.41 -1.87446871486 1.8164904 -7.67054579987
75 25 2 0.41 -1.01638034156 1.8164904 -6.89791955819

Bonds

1 1 1 2
2 1 1 3
3 1 4 5
4 1 4 6
5 1 7 8
6 1 7 9
7 1 10 11
8 1 10 12
9 1 13 14
10 1 13 15
11 1 16 17
12 1 16 18
13 1 19 20
14 1 19 21
15 1 22 23
16 1 22 24
17 1 25 26
18 1 25 27
19 1 28 29
20 1 28 30
21 1 31 32
22 1 31 33
23 1 34 35
24 1 34 36
25 1 37 38
26 1 37 39
27 1 40 41
28 1 40 42
29 1 43 44
30 1 43 45
31 1 46 47
32 1 46 48
33 1 49 50
34 1 49 51
35 1 52 53
36 1 52 54
37 1 55 56
38 1 55 57
39 1 58 59
40 1 58 60
41 1 61 62
42 1 61 63
43 1 64 65
44 1 64 66
45 1 67 68
46 1 67 69
47 1 70 71
48 1 70 72
49 1 73 74
50 1 73 75

Angles

1 1 2 1 3
2 1 5 4 6
3 1 8 7 9
4 1 11 10 12
5 1 14 13 15
6 1 17 16 18
7 1 20 19 21
8 1 23 22 24
9 1 26 25 27
10 1 29 28 30
11 1 32 31 33
12 1 35 34 36
13 1 38 37 39
14 1 41 40 42
15 1 44 43 45
16 1 47 46 48
17 1 50 49 51
18 1 53 52 54
19 1 56 55 57
20 1 59 58 60
21 1 62 61 63
22 1 65 64 66
23 1 68 67 69
24 1 71 70 72
25 1 74 73 75

