LAMMPS Description

     175  atoms
     124  bonds
     50  angles
     0  dihedrals
     0  impropers

     3  atom types
     2  bond types
     1  angle types

  0.0 86.0 xlo xhi
  0.0 38.0 ylo yhi
  0.0 38.0 zlo zhi

Masses

    1 15.9994
    2 1.008
    3   30.07

Atoms

1 1 1 -0.82 1.5 1.3 1.777359
2 1 2 0.41 1.5 2.1164904 2.3546718
3 1 2 0.41 1.5 2.1164904 1.2
4 2 1 -0.82 4.7 1.3 1.777359
5 2 2 0.41 4.7 2.1164904 2.3546718
6 2 2 0.41 4.7 2.1164904 1.2
7 3 1 -0.82 7.9 1.3 1.777359
8 3 2 0.41 7.9 2.1164904 2.3546718
9 3 2 0.41 7.9 2.1164904 1.2
10 4 1 -0.82 11.1 1.3 1.777359
11 4 2 0.41 11.1 2.1164904 2.3546718
12 4 2 0.41 11.1 2.1164904 1.2
13 5 1 -0.82 14.3 1.3 1.777359
14 5 2 0.41 14.3 2.1164904 2.3546718
15 5 2 0.41 14.3 2.1164904 1.2
16 6 1 -0.82 17.5 1.3 1.777359
17 6 2 0.41 17.5 2.1164904 2.3546718
18 6 2 0.41 17.5 2.1164904 1.2
19 7 1 -0.82 20.7 1.3 1.777359
20 7 2 0.41 20.7 2.1164904 2.3546718
21 7 2 0.41 20.7 2.1164904 1.2
22 8 1 -0.82 23.9 1.3 1.777359
23 8 2 0.41 23.9 2.1164904 2.3546718
24 8 2 0.41 23.9 2.1164904 1.2
25 9 1 -0.82 27.1 1.3 1.777359
26 9 2 0.41 27.1 2.1164904 2.3546718
27 9 2 0.41 27.1 2.1164904 1.2
28 10 1 -0.82 30.3 1.3 1.777359
29 10 2 0.41 30.3 2.1164904 2.3546718
30 10 2 0.41 30.3 2.1164904 1.2
31 11 1 -0.82 33.5 1.3 1.777359
32 11 2 0.41 33.5 2.1164904 2.3546718
33 11 2 0.41 33.5 2.1164904 1.2
34 12 1 -0.82 36.7 1.3 1.777359
35 12 2 0.41 36.7 2.1164904 2.3546718
36 12 2 0.41 36.7 2.1164904 1.2
37 13 1 -0.82 39.9 1.3 1.777359
38 13 2 0.41 39.9 2.1164904 2.3546718
39 13 2 0.41 39.9 2.1164904 1.2
40 14 1 -0.82 43.1 1.3 1.777359
41 14 2 0.41 43.1 2.1164904 2.3546718
42 14 2 0.41 43.1 2.1164904 1.2
43 15 1 -0.82 46.3 1.3 1.777359
44 15 2 0.41 46.3 2.1164904 2.3546718
45 15 2 0.41 46.3 2.1164904 1.2
46 16 1 -0.82 49.5 1.3 1.777359
47 16 2 0.41 49.5 2.1164904 2.3546718
48 16 2 0.41 49.5 2.1164904 1.2
49 17 1 -0.82 52.7 1.3 1.777359
50 17 2 0.41 52.7 2.1164904 2.3546718
51 17 2 0.41 52.7 2.1164904 1.2
52 18 1 -0.82 55.9 1.3 1.777359
53 18 2 0.41 55.9 2.1164904 2.3546718
54 18 2 0.41 55.9 2.1164904 1.2
55 19 1 -0.82 59.1 1.3 1.777359
56 19 2 0.41 59.1 2.1164904 2.3546718
57 19 2 0.41 59.1 2.1164904 1.2
58 20 1 -0.82 62.3 1.3 1.777359
59 20 2 0.41 62.3 2.1164904 2.3546718
60 20 2 0.41 62.3 2.1164904 1.2
61 21 1 -0.82 65.5 1.3 1.777359
62 21 2 0.41 65.5 2.1164904 2.3546718
63 21 2 0.41 65.5 2.1164904 1.2
64 22 1 -0.82 68.7 1.3 1.777359
65 22 2 0.41 68.7 2.1164904 2.3546718
66 22 2 0.41 68.7 2.1164904 1.2
67 23 1 -0.82 71.9 1.3 1.777359
68 23 2 0.41 71.9 2.1164904 2.3546718
69 23 2 0.41 71.9 2.1164904 1.2
70 24 1 -0.82 75.1 1.3 1.777359
71 24 2 0.41 75.1 2.1164904 2.3546718
72 24 2 0.41 75.1 2.1164904 1.2
73 25 1 -0.82 78.3 1.3 1.777359
74 25 2 0.41 78.3 2.1164904 2.3546718
75 25 2 0.41 78.3 2.1164904 1.2
76 26 1 -0.82 1.5 -1.3 -1.777359
77 26 2 0.41 1.5 -2.1164904 -2.3546718
78 26 2 0.41 1.5 -2.1164904 -1.2
79 27 1 -0.82 4.7 -1.3 -1.777359
80 27 2 0.41 4.7 -2.1164904 -2.3546718
81 27 2 0.41 4.7 -2.1164904 -1.2
82 28 1 -0.82 7.9 -1.3 -1.777359
83 28 2 0.41 7.9 -2.1164904 -2.3546718
84 28 2 0.41 7.9 -2.1164904 -1.2
85 29 1 -0.82 11.1 -1.3 -1.777359
86 29 2 0.41 11.1 -2.1164904 -2.3546718
87 29 2 0.41 11.1 -2.1164904 -1.2
88 30 1 -0.82 14.3 -1.3 -1.777359
89 30 2 0.41 14.3 -2.1164904 -2.3546718
90 30 2 0.41 14.3 -2.1164904 -1.2
91 31 1 -0.82 17.5 -1.3 -1.777359
92 31 2 0.41 17.5 -2.1164904 -2.3546718
93 31 2 0.41 17.5 -2.1164904 -1.2
94 32 1 -0.82 20.7 -1.3 -1.777359
95 32 2 0.41 20.7 -2.1164904 -2.3546718
96 32 2 0.41 20.7 -2.1164904 -1.2
97 33 1 -0.82 23.9 -1.3 -1.777359
98 33 2 0.41 23.9 -2.1164904 -2.3546718
99 33 2 0.41 23.9 -2.1164904 -1.2
100 34 1 -0.82 27.1 -1.3 -1.777359
101 34 2 0.41 27.1 -2.1164904 -2.3546718
102 34 2 0.41 27.1 -2.1164904 -1.2
103 35 1 -0.82 30.3 -1.3 -1.777359
104 35 2 0.41 30.3 -2.1164904 -2.3546718
105 35 2 0.41 30.3 -2.1164904 -1.2
106 36 1 -0.82 33.5 -1.3 -1.777359
107 36 2 0.41 33.5 -2.1164904 -2.3546718
108 36 2 0.41 33.5 -2.1164904 -1.2
109 37 1 -0.82 36.7 -1.3 -1.777359
110 37 2 0.41 36.7 -2.1164904 -2.3546718
111 37 2 0.41 36.7 -2.1164904 -1.2
112 38 1 -0.82 39.9 -1.3 -1.777359
113 38 2 0.41 39.9 -2.1164904 -2.3546718
114 38 2 0.41 39.9 -2.1164904 -1.2
115 39 1 -0.82 43.1 -1.3 -1.777359
116 39 2 0.41 43.1 -2.1164904 -2.3546718
117 39 2 0.41 43.1 -2.1164904 -1.2
118 40 1 -0.82 46.3 -1.3 -1.777359
119 40 2 0.41 46.3 -2.1164904 -2.3546718
120 40 2 0.41 46.3 -2.1164904 -1.2
121 41 1 -0.82 49.5 -1.3 -1.777359
122 41 2 0.41 49.5 -2.1164904 -2.3546718
123 41 2 0.41 49.5 -2.1164904 -1.2
124 42 1 -0.82 52.7 -1.3 -1.777359
125 42 2 0.41 52.7 -2.1164904 -2.3546718
126 42 2 0.41 52.7 -2.1164904 -1.2
127 43 1 -0.82 55.9 -1.3 -1.777359
128 43 2 0.41 55.9 -2.1164904 -2.3546718
129 43 2 0.41 55.9 -2.1164904 -1.2
130 44 1 -0.82 59.1 -1.3 -1.777359
131 44 2 0.41 59.1 -2.1164904 -2.3546718
132 44 2 0.41 59.1 -2.1164904 -1.2
133 45 1 -0.82 62.3 -1.3 -1.777359
134 45 2 0.41 62.3 -2.1164904 -2.3546718
135 45 2 0.41 62.3 -2.1164904 -1.2
136 46 1 -0.82 65.5 -1.3 -1.777359
137 46 2 0.41 65.5 -2.1164904 -2.3546718
138 46 2 0.41 65.5 -2.1164904 -1.2
139 47 1 -0.82 68.7 -1.3 -1.777359
140 47 2 0.41 68.7 -2.1164904 -2.3546718
141 47 2 0.41 68.7 -2.1164904 -1.2
142 48 1 -0.82 71.9 -1.3 -1.777359
143 48 2 0.41 71.9 -2.1164904 -2.3546718
144 48 2 0.41 71.9 -2.1164904 -1.2
145 49 1 -0.82 75.1 -1.3 -1.777359
146 49 2 0.41 75.1 -2.1164904 -2.3546718
147 49 2 0.41 75.1 -2.1164904 -1.2
148 50 1 -0.82 78.3 -1.3 -1.777359
149 50 2 0.41 78.3 -2.1164904 -2.3546718
150 50 2 0.41 78.3 -2.1164904 -1.2
151 51 3 0.0 13.0 19.0 19.0
152 51 3 0.0 15.5 19.0 19.0
153 51 3 0.0 18.0 19.0 19.0
154 51 3 0.0 20.5 19.0 19.0
155 51 3 0.0 23.0 19.0 19.0
156 51 3 0.0 25.5 19.0 19.0
157 51 3 0.0 28.0 19.0 19.0
158 51 3 0.0 30.5 19.0 19.0
159 51 3 0.0 33.0 19.0 19.0
160 51 3 0.0 35.5 19.0 19.0
161 51 3 0.0 38.0 19.0 19.0
162 51 3 0.0 40.5 19.0 19.0
163 51 3 0.0 43.0 19.0 19.0
164 51 3 0.0 45.5 19.0 19.0
165 51 3 0.0 48.0 19.0 19.0
166 51 3 0.0 50.5 19.0 19.0
167 51 3 0.0 53.0 19.0 19.0
168 51 3 0.0 55.5 19.0 19.0
169 51 3 0.0 58.0 19.0 19.0
170 51 3 0.0 60.5 19.0 19.0
171 51 3 0.0 63.0 19.0 19.0
172 51 3 0.0 65.5 19.0 19.0
173 51 3 0.0 68.0 19.0 19.0
174 51 3 0.0 70.5 19.0 19.0
175 51 3 0.0 73.0 19.0 19.0

Bonds

1 1 1 2
2 1 1 3
3 1 4 5
4 1 4 6
5 1 7 8
6 1 7 9
7 1 10 11
8 1 10 12
9 1 13 14
10 1 13 15
11 1 16 17
12 1 16 18
13 1 19 20
14 1 19 21
15 1 22 23
16 1 22 24
17 1 25 26
18 1 25 27
19 1 28 29
20 1 28 30
21 1 31 32
22 1 31 33
23 1 34 35
24 1 34 36
25 1 37 38
26 1 37 39
27 1 40 41
28 1 40 42
29 1 43 44
30 1 43 45
31 1 46 47
32 1 46 48
33 1 49 50
34 1 49 51
35 1 52 53
36 1 52 54
37 1 55 56
38 1 55 57
39 1 58 59
40 1 58 60
41 1 61 62
42 1 61 63
43 1 64 65
44 1 64 66
45 1 67 68
46 1 67 69
47 1 70 71
48 1 70 72
49 1 73 74
50 1 73 75
51 1 76 77
52 1 76 78
53 1 79 80
54 1 79 81
55 1 82 83
56 1 82 84
57 1 85 86
58 1 85 87
59 1 88 89
60 1 88 90
61 1 91 92
62 1 91 93
63 1 94 95
64 1 94 96
65 1 97 98
66 1 97 99
67 1 100 101
68 1 100 102
69 1 103 104
70 1 103 105
71 1 106 107
72 1 106 108
73 1 109 110
74 1 109 111
75 1 112 113
76 1 112 114
77 1 115 116
78 1 115 117
79 1 118 119
80 1 118 120
81 1 121 122
82 1 121 123
83 1 124 125
84 1 124 126
85 1 127 128
86 1 127 129
87 1 130 131
88 1 130 132
89 1 133 134
90 1 133 135
91 1 136 137
92 1 136 138
93 1 139 140
94 1 139 141
95 1 142 143
96 1 142 144
97 1 145 146
98 1 145 147
99 1 148 149
100 1 148 150
101 2 151 152
102 2 152 153
103 2 153 154
104 2 154 155
105 2 155 156
106 2 156 157
107 2 157 158
108 2 158 159
109 2 159 160
110 2 160 161
111 2 161 162
112 2 162 163
113 2 163 164
114 2 164 165
115 2 165 166
116 2 166 167
117 2 167 168
118 2 168 169
119 2 169 170
120 2 170 171
121 2 171 172
122 2 172 173
123 2 173 174
124 2 174 175

Angles

1 1 2 1 3
2 1 5 4 6
3 1 8 7 9
4 1 11 10 12
5 1 14 13 15
6 1 17 16 18
7 1 20 19 21
8 1 23 22 24
9 1 26 25 27
10 1 29 28 30
11 1 32 31 33
12 1 35 34 36
13 1 38 37 39
14 1 41 40 42
15 1 44 43 45
16 1 47 46 48
17 1 50 49 51
18 1 53 52 54
19 1 56 55 57
20 1 59 58 60
21 1 62 61 63
22 1 65 64 66
23 1 68 67 69
24 1 71 70 72
25 1 74 73 75
26 1 77 76 78
27 1 80 79 81
28 1 83 82 84
29 1 86 85 87
30 1 89 88 90
31 1 92 91 93
32 1 95 94 96
33 1 98 97 99
34 1 101 100 102
35 1 104 103 105
36 1 107 106 108
37 1 110 109 111
38 1 113 112 114
39 1 116 115 117
40 1 119 118 120
41 1 122 121 123
42 1 125 124 126
43 1 128 127 129
44 1 131 130 132
45 1 134 133 135
46 1 137 136 138
47 1 140 139 141
48 1 143 142 144
49 1 146 145 147
50 1 149 148 150

