ITEM: TIMESTEP
0
ITEM: NUMBER OF ATOMS
12061
ITEM: BOX BOUNDS pp pp pp
-100 100
-20 20
-20 20
ITEM: ATOMS id mol type x y z ix iy iz 
1 1 1 -94.1127 0.573726 -0.341709 0 0 0 
2 1 1 -94.0597 -1.01982 -0.952319 0 0 0 
3 1 2 -93.5415 -0.0715626 -1.13164 0 0 0 
4 1 1 -92.0976 0.776225 -0.214372 0 0 0 
5 1 1 -92.2821 -1.04645 0.190524 0 0 0 
6 1 2 -92.053 -0.207177 -0.512358 0 0 0 
7 1 1 -90.3479 0.564467 0.565606 0 0 0 
8 1 1 -90.3656 -1.09148 0.438755 0 0 0 
9 1 2 -90.3673 -0.255548 -0.273788 0 0 0 
10 1 1 -88.816 0.822684 -0.458176 0 0 0 
11 1 1 -88.7774 -1.18894 -0.70399 0 0 0 
12 1 2 -88.7817 -0.128892 -0.999671 0 0 0 
13 1 1 -87.1182 0.733729 0.382999 0 0 0 
14 1 1 -87.1221 -0.895139 0.435589 0 0 0 
15 1 2 -87.1033 -0.105691 -0.345051 0 0 0 
16 1 1 -85.3696 0.606383 -0.236862 0 0 0 
17 1 1 -85.3874 -1.2581 -0.651873 0 0 0 
18 1 2 -85.3782 -0.204487 -0.9807 0 0 0 
19 1 1 -83.5998 0.759421 0.311291 0 0 0 
20 1 1 -83.6333 -0.844946 0.427413 0 0 0 
21 1 2 -83.6192 -0.0981806 -0.398521 0 0 0 
22 1 1 -81.824 0.66338 -0.366237 0 0 0 
23 1 1 -81.9102 -1.2262 -0.545038 0 0 0 
24 1 2 -81.8694 -0.225812 -1.02376 0 0 0 
25 1 1 -80.0793 0.49288 0.353368 0 0 0 
26 1 1 -80.1122 -1.09544 0.314886 0 0 0 
27 1 2 -80.0988 -0.288193 -0.444019 0 0 0 
28 1 1 -78.3328 0.884206 -0.643196 0 0 0 
29 1 1 -78.2572 -0.828986 -0.158813 0 0 0 
30 1 2 -78.3419 -0.153184 -1.02332 0 0 0 
31 1 1 -76.4272 0.464111 -0.0365539 0 0 0 
32 1 1 -76.3973 -1.15974 -0.52427 0 0 0 
33 1 2 -76.3815 -0.14068 -0.989602 0 0 0 
34 1 1 -74.4646 0.822526 -0.341955 0 0 0 
35 1 1 -74.5177 -0.892838 -0.0675037 0 0 0 
36 1 2 -74.4236 -0.145733 -0.877042 0 0 0 
37 1 1 -72.6369 0.512502 0.467492 0 0 0 
38 1 1 -72.5981 -1.07166 0.400162 0 0 0 
39 1 2 -72.6562 -0.252595 -0.345103 0 0 0 
40 1 1 -70.9571 0.733793 -0.40681 0 0 0 
41 1 1 -70.8921 -1.21084 -0.638203 0 0 0 
42 1 2 -70.9323 -0.177683 -1.03018 0 0 0 
43 1 1 -69.1997 0.725083 0.350958 0 0 0 
44 1 1 -69.1916 -0.881055 0.403782 0 0 0 
45 1 2 -69.1841 -0.102684 -0.394097 0 0 0 
46 1 1 -67.4191 0.589349 -0.233112 0 0 0 
47 1 1 -67.416 -1.25863 -0.649122 0 0 0 
48 1 2 -67.4189 -0.209022 -0.993918 0 0 0 
49 1 1 -65.63 0.757817 0.307038 0 0 0 
50 1 1 -65.6605 -0.838752 0.417932 0 0 0 
51 1 2 -65.6471 -0.0928487 -0.411739 0 0 0 
52 1 1 -63.8356 0.662505 -0.358273 0 0 0 
53 1 1 -63.9109 -1.20578 -0.535326 0 0 0 
54 1 2 -63.8743 -0.216349 -1.03216 0 0 0 
55 1 1 -62.0655 0.504669 0.327422 0 0 0 
56 1 1 -62.1099 -1.07545 0.301671 0 0 0 
57 1 2 -62.0711 -0.272938 -0.464088 0 0 0 
58 1 1 -60.2707 0.818803 -0.648683 0 0 0 
59 1 1 -60.1954 -0.840647 -0.135182 0 0 0 
60 1 2 -60.2725 -0.214591 -1.02428 0 0 0 
61 1 1 -58.3276 0.47022 -0.103043 0 0 0 
62 1 1 -58.2867 -1.18834 -0.522649 0 0 0 
63 1 2 -58.276 -0.185637 -1.03865 0 0 0 
64 1 1 -56.3306 0.778548 -0.308224 0 0 0 
65 1 1 -56.3387 -0.944019 -0.120517 0 0 0 
66 1 2 -56.2736 -0.160337 -0.959647 0 0 0 
67 1 1 -54.4195 0.576824 0.354013 0 0 0 
68 1 1 -54.3794 -0.97302 0.29754 0 0 0 
69 1 2 -54.4083 -0.168331 -0.455044 0 0 0 
70 1 1 -52.5849 0.559432 -0.172012 0 0 0 
71 1 1 -52.5189 -1.178 -0.556111 0 0 0 
72 1 2 -52.5648 -0.167508 -0.997918 0 0 0 
73 1 1 -50.7443 0.792246 0.341195 0 0 0 
74 1 1 -50.7138 -0.786201 0.275057 0 0 0 
75 1 2 -50.6808 0.042738 -0.477651 0 0 0 
76 1 1 -48.7532 0.363828 0.121519 0 0 0 
77 1 1 -48.8146 -1.21528 -0.56278 0 0 0 
78 1 2 -48.7834 -0.154534 -0.860644 0 0 0 
79 1 1 -46.7757 0.730022 -0.175039 0 0 0 
80 1 1 -46.8251 -0.946405 0.0231895 0 0 0 
81 1 2 -46.7798 -0.194185 -0.796429 0 0 0 
82 1 1 -44.8249 0.606156 0.417419 0 0 0 
83 1 1 -44.8272 -0.975958 0.321876 0 0 0 
84 1 2 -44.8969 -0.133958 -0.409499 0 0 0 
85 1 1 -43.0763 0.656992 -0.318953 0 0 0 
86 1 1 -43.0502 -1.2026 -0.609682 0 0 0 
87 1 2 -43.0829 -0.184107 -1.04022 0 0 0 
88 1 1 -41.2647 0.730653 0.311276 0 0 0 
89 1 1 -41.2642 -0.855501 0.349342 0 0 0 
90 1 2 -41.2668 -0.0772003 -0.453716 0 0 0 
91 1 1 -39.4526 0.555117 -0.209453 0 0 0 
92 1 1 -39.4426 -1.25885 -0.639823 0 0 0 
93 1 2 -39.4527 -0.215588 -1.00293 0 0 0 
94 1 1 -37.6382 0.759237 0.300419 0 0 0 
95 1 1 -37.6666 -0.83338 0.404778 0 0 0 
96 1 2 -37.6624 -0.0849307 -0.424949 0 0 0 
97 1 1 -35.8404 0.666967 -0.356982 0 0 0 
98 1 1 -35.917 -1.20409 -0.539228 0 0 0 
99 1 2 -35.8812 -0.212083 -1.02619 0 0 0 
100 1 1 -34.0877 0.495316 0.3563 0 0 0 
101 1 1 -34.1252 -1.10013 0.312483 0 0 0 
102 1 2 -34.107 -0.2846 -0.440982 0 0 0 
103 1 1 -32.3308 0.878026 -0.631832 0 0 0 
104 1 1 -32.2497 -0.828552 -0.133589 0 0 0 
105 1 2 -32.3442 -0.160667 -1.01127 0 0 0 
106 1 1 -30.4237 0.454901 -0.0536151 0 0 0 
107 1 1 -30.3956 -1.18057 -0.561206 0 0 0 
108 1 2 -30.3812 -0.154091 -1.00468 0 0 0 
109 1 1 -28.4675 0.818546 -0.349998 0 0 0 
110 1 1 -28.5272 -0.894926 -0.0476988 0 0 0 
111 1 2 -28.4239 -0.15386 -0.873501 0 0 0 
112 1 1 -26.6381 0.51358 0.474128 0 0 0 
113 1 1 -26.5979 -1.0789 0.394916 0 0 0 
114 1 2 -26.6591 -0.250283 -0.339662 0 0 0 
115 1 1 -24.9589 0.748497 -0.399035 0 0 0 
116 1 1 -24.9 -1.18735 -0.634676 0 0 0 
117 1 2 -24.939 -0.159047 -1.02445 0 0 0 
118 1 1 -23.2005 0.725801 0.355219 0 0 0 
119 1 1 -23.1944 -0.883428 0.404357 0 0 0 
120 1 2 -23.1891 -0.10117 -0.390243 0 0 0 
121 1 1 -21.4267 0.595712 -0.233909 0 0 0 
122 1 1 -21.4361 -1.25538 -0.650653 0 0 0 
123 1 2 -21.4315 -0.205236 -0.991009 0 0 0 
124 1 1 -19.6412 0.758203 0.310249 0 0 0 
125 1 1 -19.6767 -0.843292 0.427562 0 0 0 
126 1 2 -19.6666 -0.0982177 -0.401793 0 0 0 
127 1 1 -17.8641 0.665609 -0.37937 0 0 0 
128 1 1 -17.9555 -1.22857 -0.543706 0 0 0 
129 1 2 -17.9143 -0.230427 -1.02634 0 0 0 
130 1 1 -16.1189 0.491524 0.338314 0 0 0 
131 1 1 -16.159 -1.10313 0.315804 0 0 0 
132 1 2 -16.1497 -0.299279 -0.447399 0 0 0 
133 1 1 -14.3921 0.877288 -0.691258 0 0 0 
134 1 1 -14.3169 -0.842848 -0.168752 0 0 0 
135 1 2 -14.4085 -0.170387 -1.0493 0 0 0 
136 1 1 -12.5085 0.450895 -0.0463511 0 0 0 
137 1 1 -12.476 -1.17573 -0.52996 0 0 0 
138 1 2 -12.4593 -0.162605 -0.974123 0 0 0 
139 1 1 -10.5613 0.827919 -0.359852 0 0 0 
140 1 1 -10.635 -0.912129 -0.034064 0 0 0 
141 1 2 -10.5168 -0.166273 -0.852699 0 0 0 
142 1 1 -8.77139 0.502856 0.518183 0 0 0 
143 1 1 -8.72671 -1.10902 0.448971 0 0 0 
144 1 2 -8.8074 -0.274774 -0.277352 0 0 0 
145 1 1 -7.23177 0.873298 -0.64274 0 0 0 
146 1 1 -7.11232 -1.20142 -0.722405 0 0 0 
147 1 2 -7.18863 -0.151058 -1.03661 0 0 0 
148 1 1 -5.6191 0.763085 0.441836 0 0 0 
149 1 1 -5.55039 -0.880895 0.466349 0 0 0 
150 1 2 -5.57853 -0.0658566 -0.296211 0 0 0 
151 1 1 -3.78342 0.384941 0.0123702 0 0 0 
152 1 1 -3.99145 -1.18565 -0.961638 0 0 0 
153 1 2 -3.94776 -0.0817852 -0.981058 0 0 0 
154 1 1 -2.03272 0.902933 -0.589585 0 0 0 
155 1 1 -2.18502 -0.857172 -0.14084 0 0 0 
156 1 2 -2.0325 -0.13791 -0.978856 0 0 0 
157 1 1 -0.311879 0.507665 0.41229 0 0 0 
158 1 1 -0.298122 -1.1363 0.299757 0 0 0 
159 1 2 -0.344789 -0.266837 -0.386271 0 0 0 
160 1 1 1.23268 0.833661 -0.721479 0 0 0 
161 1 1 1.31859 -1.23795 -0.856189 0 0 0 
162 1 2 1.27903 -0.178331 -1.14473 0 0 0 
163 1 1 2.87774 0.71858 0.319933 0 0 0 
164 1 1 2.89245 -0.911475 0.387596 0 0 0 
165 1 2 2.92881 -0.127615 -0.401178 0 0 0 
166 1 1 4.65681 0.610608 -0.256856 0 0 0 
167 1 1 4.67177 -1.26227 -0.660818 0 0 0 
168 1 2 4.66747 -0.208475 -0.993533 0 0 0 
169 1 1 6.42101 0.760331 0.320962 0 0 0 
170 1 1 6.39292 -0.846323 0.436841 0 0 0 
171 1 2 6.41023 -0.097807 -0.388275 0 0 0 
172 1 1 8.19251 0.673475 -0.355303 0 0 0 
173 1 1 8.1197 -1.21108 -0.546973 0 0 0 
174 1 2 8.15287 -0.211092 -1.01792 0 0 0 
175 1 1 9.93096 0.516458 0.3569 0 0 0 
176 1 1 9.89142 -1.08842 0.320316 0 0 0 
177 1 2 9.9136 -0.272891 -0.426851 0 0 0 
178 1 1 11.6729 0.877073 -0.652549 0 0 0 
179 1 1 11.7546 -0.845909 -0.131809 0 0 0 
180 1 2 11.6606 -0.173458 -1.02166 0 0 0 
181 1 1 13.5581 0.420263 -0.0511407 0 0 0 
182 1 1 13.6065 -1.19643 -0.601242 0 0 0 
183 1 2 13.6149 -0.156083 -0.995704 0 0 0 
184 1 1 15.5235 0.805382 -0.327679 0 0 0 
185 1 1 15.4718 -0.891279 -0.0179176 0 0 0 
186 1 2 15.5747 -0.171577 -0.870925 0 0 0 
187 1 1 17.3765 0.543148 0.472549 0 0 0 
188 1 1 17.3994 -1.05398 0.399505 0 0 0 
189 1 2 17.3401 -0.22422 -0.333001 0 0 0 
190 1 1 19.0478 0.738498 -0.392444 0 0 0 
191 1 1 19.09 -1.19063 -0.637675 0 0 0 
192 1 2 19.0622 -0.162323 -1.03025 0 0 0 
193 1 1 20.8017 0.725509 0.34728 0 0 0 
194 1 1 20.8063 -0.878825 0.398709 0 0 0 
195 1 2 20.8154 -0.0998065 -0.399219 0 0 0 
196 1 1 22.5872 0.586154 -0.230179 0 0 0 
197 1 1 22.5728 -1.25654 -0.646746 0 0 0 
198 1 2 22.5858 -0.209903 -0.998912 0 0 0 
199 1 1 24.3884 0.749248 0.298375 0 0 0 
200 1 1 24.3465 -0.836733 0.417251 0 0 0 
201 1 2 24.3769 -0.0989782 -0.420129 0 0 0 
202 1 1 26.2045 0.64146 -0.359623 0 0 0 
203 1 1 26.1005 -1.23137 -0.519436 0 0 0 
204 1 2 26.1573 -0.250079 -1.00997 0 0 0 
205 1 1 27.9679 0.490701 0.313936 0 0 0 
206 1 1 27.9474 -1.14949 0.361989 0 0 0 
207 1 2 27.956 -0.334229 -0.452357 0 0 0 
208 1 1 29.7715 0.983139 -0.603493 0 0 0 
209 1 1 29.86 -0.9043 -0.190719 0 0 0 
210 1 2 29.7469 -0.15989 -1.08245 0 0 0 
211 1 1 31.6729 0.548177 -0.255653 0 0 0 
212 1 1 31.7225 -1.14015 -0.495015 0 0 0 
213 1 2 31.7456 -0.13905 -1.02822 0 0 0 
214 1 1 33.6148 0.825512 -0.220313 0 0 0 
215 1 1 33.6076 -0.96026 -0.189839 0 0 0 
216 1 2 33.6712 -0.121395 -0.963827 0 0 0 
217 1 1 35.5625 0.584062 0.340749 0 0 0 
218 1 1 35.5703 -1.06229 0.360342 0 0 0 
219 1 2 35.561 -0.220243 -0.45138 0 0 0 
220 1 1 37.3797 0.552853 -0.178101 0 0 0 
221 1 1 37.4619 -1.21212 -0.549422 0 0 0 
222 1 2 37.4181 -0.20332 -0.991048 0 0 0 
223 1 1 39.2345 0.779219 0.328621 0 0 0 
224 1 1 39.2732 -0.784713 0.275183 0 0 0 
225 1 2 39.2936 0.0324997 -0.484123 0 0 0 
226 1 1 41.2352 0.356318 0.117455 0 0 0 
227 1 1 41.186 -1.23549 -0.564938 0 0 0 
228 1 2 41.2002 -0.169558 -0.865638 0 0 0 
229 1 1 43.2185 0.726989 -0.176564 0 0 0 
230 1 1 43.1704 -0.944066 0.0350692 0 0 0 
231 1 2 43.2104 -0.201474 -0.790851 0 0 0 
232 1 1 45.171 0.604629 0.42045 0 0 0 
233 1 1 45.1717 -0.980765 0.315795 0 0 0 
234 1 2 45.0981 -0.132397 -0.40917 0 0 0 
235 1 1 46.9204 0.667572 -0.313464 0 0 0 
236 1 1 46.9406 -1.18367 -0.60549 0 0 0 
237 1 2 46.9125 -0.169672 -1.03808 0 0 0 
238 1 1 48.7343 0.730856 0.313557 0 0 0 
239 1 1 48.734 -0.856801 0.348233 0 0 0 
240 1 2 48.7296 -0.0753804 -0.452323 0 0 0 
241 1 1 50.5452 0.557312 -0.208533 0 0 0 
242 1 1 50.542 -1.2548 -0.639428 0 0 0 
243 1 2 50.5422 -0.212378 -1.00321 0 0 0 
244 1 1 52.3616 0.758499 0.298986 0 0 0 
245 1 1 52.3315 -0.832527 0.404771 0 0 0 
246 1 2 52.3353 -0.0857004 -0.425285 0 0 0 
247 1 1 54.1577 0.657649 -0.359694 0 0 0 
248 1 1 54.0734 -1.22366 -0.544517 0 0 0 
249 1 2 54.1127 -0.224905 -1.02937 0 0 0 
250 1 1 55.9085 0.498021 0.357011 0 0 0 
251 1 1 55.8754 -1.09151 0.321299 0 0 0 
252 1 2 55.8943 -0.286823 -0.431291 0 0 0 
253 1 1 57.6699 0.877283 -0.62273 0 0 0 
254 1 1 57.7562 -0.828611 -0.136056 0 0 0 
255 1 2 57.6538 -0.154525 -1.02697 0 0 0 
256 1 1 59.5782 0.468131 -0.0775785 0 0 0 
257 1 1 59.607 -1.16203 -0.573826 0 0 0 
258 1 2 59.6177 -0.1374 -1.00761 0 0 0 
259 1 1 61.5306 0.820809 -0.340869 0 0 0 
260 1 1 61.4665 -0.89758 -0.051261 0 0 0 
261 1 2 61.583 -0.155908 -0.891743 0 0 0 
262 1 1 63.3649 0.515879 0.474721 0 0 0 
263 1 1 63.4019 -1.0706 0.404679 0 0 0 
264 1 2 63.3378 -0.249062 -0.327123 0 0 0 
265 1 1 65.0419 0.736315 -0.405097 0 0 0 
266 1 1 65.1061 -1.21115 -0.636721 0 0 0 
267 1 2 65.066 -0.176654 -1.02772 0 0 0 
268 1 1 66.7992 0.725357 0.352563 0 0 0 
269 1 1 66.8071 -0.881602 0.405628 0 0 0 
270 1 2 66.8129 -0.103435 -0.391397 0 0 0 
271 1 1 68.5751 0.592569 -0.234941 0 0 0 
272 1 1 68.5796 -1.25945 -0.650403 0 0 0 
273 1 2 68.5734 -0.208677 -0.991774 0 0 0 
274 1 1 70.3584 0.759398 0.311259 0 0 0 
275 1 1 70.3265 -0.842598 0.425667 0 0 0 
276 1 2 70.3367 -0.0955492 -0.401996 0 0 0 
277 1 1 72.1373 0.675586 -0.370931 0 0 0 
278 1 1 72.0576 -1.21 -0.540354 0 0 0 
279 1 2 72.0921 -0.215931 -1.02458 0 0 0 
280 1 1 73.8819 0.501798 0.345383 0 0 0 
281 1 1 73.8364 -1.10166 0.314367 0 0 0 
282 1 2 73.8565 -0.288439 -0.433374 0 0 0 
283 1 1 75.613 0.857969 -0.68483 0 0 0 
284 1 1 75.6968 -0.850245 -0.143065 0 0 0 
285 1 2 75.5927 -0.189321 -1.04988 0 0 0 
286 1 1 77.4945 0.449408 -0.0707913 0 0 0 
287 1 1 77.5378 -1.19535 -0.566339 0 0 0 
288 1 2 77.5447 -0.171962 -0.980952 0 0 0 
289 1 1 79.4276 0.827388 -0.348814 0 0 0 
290 1 1 79.371 -0.907233 -0.0336398 0 0 0 
291 1 2 79.4939 -0.159239 -0.868595 0 0 0 
292 1 1 81.1906 0.525618 0.560166 0 0 0 
293 1 1 81.2785 -1.08544 0.44519 0 0 0 
294 1 2 81.1864 -0.231318 -0.244034 0 0 0 
295 1 1 82.7864 0.928632 -0.405064 0 0 0 
296 1 1 82.9474 -1.09005 -0.6009 0 0 0 
297 1 2 82.8057 -0.0440242 -0.919802 0 0 0 
298 1 1 84.505 0.68958 0.540972 0 0 0 
299 1 1 84.8916 -0.886798 -0.0929361 0 0 0 
300 1 2 84.3942 0.0644221 -0.378563 0 0 0 
301 1 1 85.068 0.46799 -1.16727 0 0 0 
302 2 3 39.5997 -16.1119 -16.4656 0 0 0 
303 2 1 39.4772 -15.1596 -16.4078 0 0 0 
304 2 1 39.4643 -16.4993 -15.5949 0 0 0 
305 3 3 35.5997 -16.1119 -16.4656 0 0 0 
306 3 1 35.4772 -15.1596 -16.4078 0 0 0 
307 3 1 35.4643 -16.4993 -15.5949 0 0 0 
308 4 3 31.5997 -16.1119 -16.4656 0 0 0 
309 4 1 31.4772 -15.1596 -16.4078 0 0 0 
310 4 1 31.4643 -16.4993 -15.5949 0 0 0 
311 5 3 27.5997 -16.1119 -16.4656 0 0 0 
312 5 1 27.4772 -15.1596 -16.4078 0 0 0 
313 5 1 27.4643 -16.4993 -15.5949 0 0 0 
314 6 3 23.5997 -16.1119 -16.4656 0 0 0 
315 6 1 23.4772 -15.1596 -16.4078 0 0 0 
316 6 1 23.4643 -16.4993 -15.5949 0 0 0 
317 7 3 19.5997 -16.1119 -16.4656 0 0 0 
318 7 1 19.4772 -15.1596 -16.4078 0 0 0 
319 7 1 19.4643 -16.4993 -15.5949 0 0 0 
320 8 3 15.5997 -16.1119 -16.4656 0 0 0 
321 8 1 15.4772 -15.1596 -16.4078 0 0 0 
322 8 1 15.4643 -16.4993 -15.5949 0 0 0 
323 9 3 11.5997 -16.1119 -16.4656 0 0 0 
324 9 1 11.4772 -15.1596 -16.4078 0 0 0 
325 9 1 11.4643 -16.4993 -15.5949 0 0 0 
326 10 3 7.59971 -16.1119 -16.4656 0 0 0 
327 10 1 7.47722 -15.1596 -16.4078 0 0 0 
328 10 1 7.46425 -16.4993 -15.5949 0 0 0 
329 11 3 3.59971 -16.1119 -16.4656 0 0 0 
330 11 1 3.47722 -15.1596 -16.4078 0 0 0 
331 11 1 3.46425 -16.4993 -15.5949 0 0 0 
332 12 3 -0.400287 -16.1119 -16.4656 0 0 0 
333 12 1 -0.522785 -15.1596 -16.4078 0 0 0 
334 12 1 -0.535747 -16.4993 -15.5949 0 0 0 
335 13 3 -4.40029 -16.1119 -16.4656 0 0 0 
336 13 1 -4.52278 -15.1596 -16.4078 0 0 0 
337 13 1 -4.53575 -16.4993 -15.5949 0 0 0 
338 14 3 -8.40029 -16.1119 -16.4656 0 0 0 
339 14 1 -8.52278 -15.1596 -16.4078 0 0 0 
340 14 1 -8.53575 -16.4993 -15.5949 0 0 0 
341 15 3 -12.4003 -16.1119 -16.4656 0 0 0 
342 15 1 -12.5228 -15.1596 -16.4078 0 0 0 
343 15 1 -12.5357 -16.4993 -15.5949 0 0 0 
344 16 3 -16.4003 -16.1119 -16.4656 0 0 0 
345 16 1 -16.5228 -15.1596 -16.4078 0 0 0 
346 16 1 -16.5357 -16.4993 -15.5949 0 0 0 
347 17 3 -20.4003 -16.1119 -16.4656 0 0 0 
348 17 1 -20.5228 -15.1596 -16.4078 0 0 0 
349 17 1 -20.5357 -16.4993 -15.5949 0 0 0 
350 18 3 -24.4003 -16.1119 -16.4656 0 0 0 
351 18 1 -24.5228 -15.1596 -16.4078 0 0 0 
352 18 1 -24.5357 -16.4993 -15.5949 0 0 0 
353 19 3 -28.4003 -16.1119 -16.4656 0 0 0 
354 19 1 -28.5228 -15.1596 -16.4078 0 0 0 
355 19 1 -28.5357 -16.4993 -15.5949 0 0 0 
356 20 3 -32.4003 -16.1119 -16.4656 0 0 0 
357 20 1 -32.5228 -15.1596 -16.4078 0 0 0 
358 20 1 -32.5357 -16.4993 -15.5949 0 0 0 
359 21 3 -36.4003 -16.1119 -16.4656 0 0 0 
360 21 1 -36.5228 -15.1596 -16.4078 0 0 0 
361 21 1 -36.5357 -16.4993 -15.5949 0 0 0 
362 22 3 -40.4003 -16.1119 -16.4656 0 0 0 
363 22 1 -40.5228 -15.1596 -16.4078 0 0 0 
364 22 1 -40.5357 -16.4993 -15.5949 0 0 0 
365 23 3 -44.4003 -16.1119 -16.4656 0 0 0 
366 23 1 -44.5228 -15.1596 -16.4078 0 0 0 
367 23 1 -44.5357 -16.4993 -15.5949 0 0 0 
368 24 3 -48.4003 -16.1119 -16.4656 0 0 0 
369 24 1 -48.5228 -15.1596 -16.4078 0 0 0 
370 24 1 -48.5357 -16.4993 -15.5949 0 0 0 
371 25 3 -52.4003 -16.1119 -16.4656 0 0 0 
372 25 1 -52.5228 -15.1596 -16.4078 0 0 0 
373 25 1 -52.5357 -16.4993 -15.5949 0 0 0 
374 26 3 -56.4003 -16.1119 -16.4656 0 0 0 
375 26 1 -56.5228 -15.1596 -16.4078 0 0 0 
376 26 1 -56.5357 -16.4993 -15.5949 0 0 0 
377 27 3 -60.4003 -16.1119 -16.4656 0 0 0 
378 27 1 -60.5228 -15.1596 -16.4078 0 0 0 
379 27 1 -60.5357 -16.4993 -15.5949 0 0 0 
380 28 3 -64.4003 -16.1119 -16.4656 0 0 0 
381 28 1 -64.5228 -15.1596 -16.4078 0 0 0 
382 28 1 -64.5358 -16.4993 -15.5949 0 0 0 
383 29 3 -68.4003 -16.1119 -16.4656 0 0 0 
384 29 1 -68.5228 -15.1596 -16.4078 0 0 0 
385 29 1 -68.5358 -16.4993 -15.5949 0 0 0 
386 30 3 -72.4003 -16.1119 -16.4656 0 0 0 
387 30 1 -72.5228 -15.1596 -16.4078 0 0 0 
388 30 1 -72.5358 -16.4993 -15.5949 0 0 0 
389 31 3 -76.4003 -16.1119 -16.4656 0 0 0 
390 31 1 -76.5228 -15.1596 -16.4078 0 0 0 
391 31 1 -76.5358 -16.4993 -15.5949 0 0 0 
392 32 3 -80.4003 -16.1119 -16.4656 0 0 0 
393 32 1 -80.5228 -15.1596 -16.4078 0 0 0 
394 32 1 -80.5358 -16.4993 -15.5949 0 0 0 
395 33 3 -84.4003 -16.1119 -16.4656 0 0 0 
396 33 1 -84.5228 -15.1596 -16.4078 0 0 0 
397 33 1 -84.5358 -16.4993 -15.5949 0 0 0 
398 34 3 -88.4003 -16.1119 -16.4656 0 0 0 
399 34 1 -88.5228 -15.1596 -16.4078 0 0 0 
400 34 1 -88.5357 -16.4993 -15.5949 0 0 0 
401 35 3 -92.401 -16.1119 -16.4657 0 0 0 
402 35 1 -92.5224 -15.1595 -16.4077 0 0 0 
403 35 1 -92.5354 -16.4993 -15.5948 0 0 0 
404 36 3 -96.4216 -16.1141 -16.4695 0 0 0 
405 36 1 -96.511 -15.1584 -16.4055 0 0 0 
406 36 1 -96.524 -16.499 -15.593 0 0 0 
407 37 3 43.5997 -16.1119 -16.4656 0 0 0 
408 37 1 43.4772 -15.1596 -16.4078 0 0 0 
409 37 1 43.4643 -16.4993 -15.5949 0 0 0 
410 38 3 47.5997 -16.1119 -16.4656 0 0 0 
411 38 1 47.4772 -15.1596 -16.4078 0 0 0 
412 38 1 47.4643 -16.4993 -15.5949 0 0 0 
413 39 3 51.5997 -16.1119 -16.4656 0 0 0 
414 39 1 51.4772 -15.1596 -16.4078 0 0 0 
415 39 1 51.4643 -16.4993 -15.5949 0 0 0 
416 40 3 55.5997 -16.1119 -16.4656 0 0 0 
417 40 1 55.4772 -15.1596 -16.4078 0 0 0 
418 40 1 55.4643 -16.4993 -15.5949 0 0 0 
419 41 3 59.5997 -16.1119 -16.4656 0 0 0 
420 41 1 59.4772 -15.1596 -16.4078 0 0 0 
421 41 1 59.4643 -16.4993 -15.5949 0 0 0 
422 42 3 63.5997 -16.1119 -16.4656 0 0 0 
423 42 1 63.4772 -15.1596 -16.4078 0 0 0 
424 42 1 63.4643 -16.4993 -15.5949 0 0 0 
425 43 3 67.5997 -16.1119 -16.4656 0 0 0 
426 43 1 67.4772 -15.1596 -16.4078 0 0 0 
427 43 1 67.4642 -16.4993 -15.5949 0 0 0 
428 44 3 71.5997 -16.1119 -16.4656 0 0 0 
429 44 1 71.4772 -15.1596 -16.4078 0 0 0 
430 44 1 71.4642 -16.4993 -15.5949 0 0 0 
431 45 3 75.5997 -16.1119 -16.4656 0 0 0 
432 45 1 75.4772 -15.1596 -16.4078 0 0 0 
433 45 1 75.4642 -16.4993 -15.5949 0 0 0 
434 46 3 79.5997 -16.1119 -16.4656 0 0 0 
435 46 1 79.4772 -15.1596 -16.4078 0 0 0 
436 46 1 79.4642 -16.4993 -15.5949 0 0 0 
437 47 3 83.5997 -16.1119 -16.4656 0 0 0 
438 47 1 83.4772 -15.1596 -16.4078 0 0 0 
439 47 1 83.4642 -16.4993 -15.5949 0 0 0 
440 48 3 87.5997 -16.1119 -16.4656 0 0 0 
441 48 1 87.4772 -15.1596 -16.4078 0 0 0 
442 48 1 87.4642 -16.4993 -15.5949 0 0 0 
443 49 3 91.5997 -16.1119 -16.4656 0 0 0 
444 49 1 91.4772 -15.1596 -16.4078 0 0 0 
445 49 1 91.4643 -16.4993 -15.5949 0 0 0 
446 50 3 95.6005 -16.1129 -16.4673 0 0 0 
447 50 1 95.4774 -15.1606 -16.4079 0 0 0 
448 50 1 95.4641 -16.4994 -15.5962 0 0 0 
449 51 3 39.5945 -12.1263 -16.4575 0 0 0 
450 51 1 39.4817 -11.1701 -16.421 0 0 0 
451 51 1 39.4636 -12.4825 -15.5748 0 0 0 
452 52 3 35.5945 -12.1263 -16.4575 0 0 0 
453 52 1 35.4817 -11.1701 -16.421 0 0 0 
454 52 1 35.4636 -12.4825 -15.5748 0 0 0 
455 53 3 31.5945 -12.1263 -16.4575 0 0 0 
456 53 1 31.4817 -11.1701 -16.421 0 0 0 
457 53 1 31.4636 -12.4825 -15.5748 0 0 0 
458 54 3 27.5945 -12.1263 -16.4575 0 0 0 
459 54 1 27.4817 -11.1701 -16.421 0 0 0 
460 54 1 27.4636 -12.4825 -15.5748 0 0 0 
461 55 3 23.5945 -12.1263 -16.4575 0 0 0 
462 55 1 23.4817 -11.1701 -16.421 0 0 0 
463 55 1 23.4636 -12.4825 -15.5748 0 0 0 
464 56 3 19.5945 -12.1263 -16.4575 0 0 0 
465 56 1 19.4817 -11.1701 -16.421 0 0 0 
466 56 1 19.4636 -12.4825 -15.5748 0 0 0 
467 57 3 15.5945 -12.1263 -16.4575 0 0 0 
468 57 1 15.4817 -11.1701 -16.421 0 0 0 
469 57 1 15.4636 -12.4825 -15.5748 0 0 0 
470 58 3 11.5945 -12.1263 -16.4575 0 0 0 
471 58 1 11.4817 -11.1701 -16.421 0 0 0 
472 58 1 11.4636 -12.4825 -15.5748 0 0 0 
473 59 3 7.59447 -12.1263 -16.4575 0 0 0 
474 59 1 7.48173 -11.1701 -16.421 0 0 0 
475 59 1 7.46361 -12.4825 -15.5748 0 0 0 
476 60 3 3.59447 -12.1263 -16.4575 0 0 0 
477 60 1 3.48173 -11.1701 -16.421 0 0 0 
478 60 1 3.46361 -12.4825 -15.5748 0 0 0 
479 61 3 -0.405532 -12.1263 -16.4575 0 0 0 
480 61 1 -0.51827 -11.1701 -16.421 0 0 0 
481 61 1 -0.536389 -12.4825 -15.5748 0 0 0 
482 62 3 -4.40553 -12.1263 -16.4575 0 0 0 
483 62 1 -4.51827 -11.1701 -16.421 0 0 0 
484 62 1 -4.53639 -12.4825 -15.5748 0 0 0 
485 63 3 -8.40553 -12.1263 -16.4575 0 0 0 
486 63 1 -8.51827 -11.1701 -16.421 0 0 0 
487 63 1 -8.53639 -12.4825 -15.5748 0 0 0 
488 64 3 -12.4055 -12.1263 -16.4575 0 0 0 
489 64 1 -12.5183 -11.1701 -16.421 0 0 0 
490 64 1 -12.5364 -12.4825 -15.5748 0 0 0 
491 65 3 -16.4055 -12.1263 -16.4575 0 0 0 
492 65 1 -16.5183 -11.1701 -16.421 0 0 0 
493 65 1 -16.5364 -12.4825 -15.5748 0 0 0 
494 66 3 -20.4055 -12.1263 -16.4575 0 0 0 
495 66 1 -20.5183 -11.1701 -16.421 0 0 0 
496 66 1 -20.5364 -12.4825 -15.5748 0 0 0 
497 67 3 -24.4055 -12.1263 -16.4575 0 0 0 
498 67 1 -24.5183 -11.1701 -16.421 0 0 0 
499 67 1 -24.5364 -12.4825 -15.5748 0 0 0 
500 68 3 -28.4055 -12.1263 -16.4575 0 0 0 
501 68 1 -28.5183 -11.1701 -16.421 0 0 0 
502 68 1 -28.5364 -12.4825 -15.5748 0 0 0 
503 69 3 -32.4055 -12.1263 -16.4575 0 0 0 
504 69 1 -32.5183 -11.1701 -16.421 0 0 0 
505 69 1 -32.5364 -12.4825 -15.5748 0 0 0 
506 70 3 -36.4055 -12.1263 -16.4575 0 0 0 
507 70 1 -36.5183 -11.1701 -16.421 0 0 0 
508 70 1 -36.5364 -12.4825 -15.5748 0 0 0 
509 71 3 -40.4055 -12.1263 -16.4575 0 0 0 
510 71 1 -40.5183 -11.1701 -16.421 0 0 0 
511 71 1 -40.5364 -12.4825 -15.5748 0 0 0 
512 72 3 -44.4055 -12.1263 -16.4575 0 0 0 
513 72 1 -44.5183 -11.1701 -16.421 0 0 0 
514 72 1 -44.5364 -12.4825 -15.5748 0 0 0 
515 73 3 -48.4055 -12.1263 -16.4575 0 0 0 
516 73 1 -48.5183 -11.1701 -16.421 0 0 0 
517 73 1 -48.5364 -12.4825 -15.5748 0 0 0 
518 74 3 -52.4055 -12.1263 -16.4575 0 0 0 
519 74 1 -52.5183 -11.1701 -16.421 0 0 0 
520 74 1 -52.5364 -12.4825 -15.5748 0 0 0 
521 75 3 -56.4055 -12.1263 -16.4575 0 0 0 
522 75 1 -56.5183 -11.1701 -16.421 0 0 0 
523 75 1 -56.5364 -12.4825 -15.5748 0 0 0 
524 76 3 -60.4055 -12.1263 -16.4575 0 0 0 
525 76 1 -60.5183 -11.1701 -16.421 0 0 0 
526 76 1 -60.5364 -12.4825 -15.5748 0 0 0 
527 77 3 -64.4055 -12.1263 -16.4575 0 0 0 
528 77 1 -64.5183 -11.1701 -16.421 0 0 0 
529 77 1 -64.5364 -12.4825 -15.5748 0 0 0 
530 78 3 -68.4055 -12.1263 -16.4575 0 0 0 
531 78 1 -68.5183 -11.1701 -16.421 0 0 0 
532 78 1 -68.5364 -12.4825 -15.5748 0 0 0 
533 79 3 -72.4055 -12.1263 -16.4575 0 0 0 
534 79 1 -72.5183 -11.1701 -16.421 0 0 0 
535 79 1 -72.5364 -12.4825 -15.5748 0 0 0 
536 80 3 -76.4055 -12.1263 -16.4575 0 0 0 
537 80 1 -76.5183 -11.1701 -16.421 0 0 0 
538 80 1 -76.5364 -12.4825 -15.5748 0 0 0 
539 81 3 -80.4055 -12.1263 -16.4575 0 0 0 
540 81 1 -80.5183 -11.1701 -16.421 0 0 0 
541 81 1 -80.5364 -12.4825 -15.5748 0 0 0 
542 82 3 -84.4055 -12.1263 -16.4575 0 0 0 
543 82 1 -84.5183 -11.1701 -16.421 0 0 0 
544 82 1 -84.5364 -12.4825 -15.5748 0 0 0 
545 83 3 -88.4055 -12.1263 -16.4575 0 0 0 
546 83 1 -88.5183 -11.1701 -16.421 0 0 0 
547 83 1 -88.5364 -12.4825 -15.5748 0 0 0 
548 84 3 -92.4062 -12.1263 -16.4576 0 0 0 
549 84 1 -92.5179 -11.1701 -16.421 0 0 0 
550 84 1 -92.536 -12.4825 -15.5747 0 0 0 
551 85 3 -96.4221 -12.1276 -16.461 0 0 0 
552 85 1 -96.5079 -11.1688 -16.4191 0 0 0 
553 85 1 -96.5269 -12.4821 -15.574 0 0 0 
554 86 3 43.5945 -12.1263 -16.4575 0 0 0 
555 86 1 43.4817 -11.1701 -16.421 0 0 0 
556 86 1 43.4636 -12.4825 -15.5748 0 0 0 
557 87 3 47.5945 -12.1263 -16.4575 0 0 0 
558 87 1 47.4817 -11.1701 -16.421 0 0 0 
559 87 1 47.4636 -12.4825 -15.5748 0 0 0 
560 88 3 51.5945 -12.1263 -16.4575 0 0 0 
561 88 1 51.4817 -11.1701 -16.421 0 0 0 
562 88 1 51.4636 -12.4825 -15.5748 0 0 0 
563 89 3 55.5945 -12.1263 -16.4575 0 0 0 
564 89 1 55.4817 -11.1701 -16.421 0 0 0 
565 89 1 55.4636 -12.4825 -15.5748 0 0 0 
566 90 3 59.5945 -12.1263 -16.4575 0 0 0 
567 90 1 59.4817 -11.1701 -16.421 0 0 0 
568 90 1 59.4636 -12.4825 -15.5748 0 0 0 
569 91 3 63.5945 -12.1263 -16.4575 0 0 0 
570 91 1 63.4817 -11.1701 -16.421 0 0 0 
571 91 1 63.4636 -12.4825 -15.5748 0 0 0 
572 92 3 67.5945 -12.1263 -16.4575 0 0 0 
573 92 1 67.4817 -11.1701 -16.421 0 0 0 
574 92 1 67.4636 -12.4825 -15.5748 0 0 0 
575 93 3 71.5945 -12.1263 -16.4575 0 0 0 
576 93 1 71.4817 -11.1701 -16.421 0 0 0 
577 93 1 71.4636 -12.4825 -15.5748 0 0 0 
578 94 3 75.5945 -12.1263 -16.4575 0 0 0 
579 94 1 75.4817 -11.1701 -16.421 0 0 0 
580 94 1 75.4636 -12.4825 -15.5748 0 0 0 
581 95 3 79.5945 -12.1263 -16.4575 0 0 0 
582 95 1 79.4817 -11.1701 -16.421 0 0 0 
583 95 1 79.4636 -12.4825 -15.5748 0 0 0 
584 96 3 83.5945 -12.1263 -16.4575 0 0 0 
585 96 1 83.4817 -11.1701 -16.421 0 0 0 
586 96 1 83.4636 -12.4825 -15.5748 0 0 0 
587 97 3 87.5945 -12.1263 -16.4575 0 0 0 
588 97 1 87.4817 -11.1701 -16.421 0 0 0 
589 97 1 87.4636 -12.4825 -15.5748 0 0 0 
590 98 3 91.5943 -12.1263 -16.4576 0 0 0 
591 98 1 91.4818 -11.1701 -16.421 0 0 0 
592 98 1 91.4637 -12.4825 -15.5748 0 0 0 
593 99 3 95.5889 -12.1265 -16.461 0 0 0 
594 99 1 95.4826 -11.1698 -16.42 0 0 0 
595 99 1 95.467 -12.4829 -15.5768 0 0 0 
596 100 3 39.5945 -8.12635 -16.4575 0 0 0 
597 100 1 39.4818 -7.17016 -16.4212 0 0 0 
598 100 1 39.4636 -8.48217 -15.5747 0 0 0 
599 101 3 35.5945 -8.12635 -16.4575 0 0 0 
600 101 1 35.4818 -7.17016 -16.4212 0 0 0 
601 101 1 35.4636 -8.48217 -15.5747 0 0 0 
602 102 3 31.5945 -8.12635 -16.4575 0 0 0 
603 102 1 31.4818 -7.17016 -16.4212 0 0 0 
604 102 1 31.4636 -8.48217 -15.5747 0 0 0 
605 103 3 27.5945 -8.12635 -16.4575 0 0 0 
606 103 1 27.4818 -7.17016 -16.4212 0 0 0 
607 103 1 27.4636 -8.48217 -15.5747 0 0 0 
608 104 3 23.5945 -8.12635 -16.4575 0 0 0 
609 104 1 23.4818 -7.17016 -16.4212 0 0 0 
610 104 1 23.4636 -8.48217 -15.5747 0 0 0 
611 105 3 19.5945 -8.12635 -16.4575 0 0 0 
612 105 1 19.4818 -7.17016 -16.4212 0 0 0 
613 105 1 19.4636 -8.48217 -15.5747 0 0 0 
614 106 3 15.5945 -8.12635 -16.4575 0 0 0 
615 106 1 15.4818 -7.17016 -16.4212 0 0 0 
616 106 1 15.4636 -8.48217 -15.5747 0 0 0 
617 107 3 11.5945 -8.12635 -16.4575 0 0 0 
618 107 1 11.4818 -7.17016 -16.4212 0 0 0 
619 107 1 11.4636 -8.48217 -15.5747 0 0 0 
620 108 3 7.59445 -8.12635 -16.4575 0 0 0 
621 108 1 7.48177 -7.17016 -16.4212 0 0 0 
622 108 1 7.46358 -8.48217 -15.5747 0 0 0 
623 109 3 3.59445 -8.12635 -16.4575 0 0 0 
624 109 1 3.48177 -7.17016 -16.4212 0 0 0 
625 109 1 3.46358 -8.48217 -15.5747 0 0 0 
626 110 3 -0.405545 -8.12635 -16.4575 0 0 0 
627 110 1 -0.51823 -7.17016 -16.4212 0 0 0 
628 110 1 -0.536419 -8.48217 -15.5747 0 0 0 
629 111 3 -4.40555 -8.12635 -16.4575 0 0 0 
630 111 1 -4.51823 -7.17016 -16.4212 0 0 0 
631 111 1 -4.53642 -8.48217 -15.5747 0 0 0 
632 112 3 -8.40555 -8.12635 -16.4575 0 0 0 
633 112 1 -8.51823 -7.17016 -16.4212 0 0 0 
634 112 1 -8.53642 -8.48217 -15.5747 0 0 0 
635 113 3 -12.4055 -8.12635 -16.4575 0 0 0 
636 113 1 -12.5182 -7.17016 -16.4212 0 0 0 
637 113 1 -12.5364 -8.48217 -15.5747 0 0 0 
638 114 3 -16.4055 -8.12635 -16.4575 0 0 0 
639 114 1 -16.5182 -7.17016 -16.4212 0 0 0 
640 114 1 -16.5364 -8.48217 -15.5747 0 0 0 
641 115 3 -20.4055 -8.12635 -16.4575 0 0 0 
642 115 1 -20.5182 -7.17016 -16.4212 0 0 0 
643 115 1 -20.5364 -8.48217 -15.5747 0 0 0 
644 116 3 -24.4055 -8.12635 -16.4575 0 0 0 
645 116 1 -24.5182 -7.17016 -16.4212 0 0 0 
646 116 1 -24.5364 -8.48217 -15.5747 0 0 0 
647 117 3 -28.4055 -8.12635 -16.4575 0 0 0 
648 117 1 -28.5182 -7.17016 -16.4212 0 0 0 
649 117 1 -28.5364 -8.48217 -15.5747 0 0 0 
650 118 3 -32.4055 -8.12635 -16.4575 0 0 0 
651 118 1 -32.5182 -7.17016 -16.4212 0 0 0 
652 118 1 -32.5364 -8.48217 -15.5747 0 0 0 
653 119 3 -36.4055 -8.12635 -16.4575 0 0 0 
654 119 1 -36.5182 -7.17016 -16.4212 0 0 0 
655 119 1 -36.5364 -8.48217 -15.5747 0 0 0 
656 120 3 -40.4055 -8.12635 -16.4575 0 0 0 
657 120 1 -40.5182 -7.17016 -16.4212 0 0 0 
658 120 1 -40.5364 -8.48217 -15.5747 0 0 0 
659 121 3 -44.4055 -8.12635 -16.4575 0 0 0 
660 121 1 -44.5182 -7.17016 -16.4212 0 0 0 
661 121 1 -44.5364 -8.48217 -15.5747 0 0 0 
662 122 3 -48.4055 -8.12635 -16.4575 0 0 0 
663 122 1 -48.5182 -7.17016 -16.4212 0 0 0 
664 122 1 -48.5364 -8.48217 -15.5747 0 0 0 
665 123 3 -52.4055 -8.12635 -16.4575 0 0 0 
666 123 1 -52.5182 -7.17016 -16.4212 0 0 0 
667 123 1 -52.5364 -8.48217 -15.5747 0 0 0 
668 124 3 -56.4055 -8.12635 -16.4575 0 0 0 
669 124 1 -56.5182 -7.17016 -16.4212 0 0 0 
670 124 1 -56.5364 -8.48217 -15.5747 0 0 0 
671 125 3 -60.4055 -8.12635 -16.4575 0 0 0 
672 125 1 -60.5182 -7.17016 -16.4212 0 0 0 
673 125 1 -60.5364 -8.48217 -15.5747 0 0 0 
674 126 3 -64.4055 -8.12635 -16.4575 0 0 0 
675 126 1 -64.5182 -7.17016 -16.4212 0 0 0 
676 126 1 -64.5364 -8.48217 -15.5747 0 0 0 
677 127 3 -68.4055 -8.12635 -16.4575 0 0 0 
678 127 1 -68.5182 -7.17016 -16.4212 0 0 0 
679 127 1 -68.5364 -8.48217 -15.5747 0 0 0 
680 128 3 -72.4055 -8.12635 -16.4575 0 0 0 
681 128 1 -72.5182 -7.17016 -16.4212 0 0 0 
682 128 1 -72.5364 -8.48217 -15.5747 0 0 0 
683 129 3 -76.4055 -8.12635 -16.4575 0 0 0 
684 129 1 -76.5182 -7.17016 -16.4212 0 0 0 
685 129 1 -76.5364 -8.48217 -15.5747 0 0 0 
686 130 3 -80.4055 -8.12635 -16.4575 0 0 0 
687 130 1 -80.5182 -7.17016 -16.4212 0 0 0 
688 130 1 -80.5364 -8.48217 -15.5747 0 0 0 
689 131 3 -84.4055 -8.12635 -16.4575 0 0 0 
690 131 1 -84.5182 -7.17016 -16.4212 0 0 0 
691 131 1 -84.5364 -8.48217 -15.5747 0 0 0 
692 132 3 -88.4056 -8.12636 -16.4575 0 0 0 
693 132 1 -88.5182 -7.17016 -16.4212 0 0 0 
694 132 1 -88.5364 -8.48217 -15.5747 0 0 0 
695 133 3 -92.4062 -8.1264 -16.4576 0 0 0 
696 133 1 -92.5179 -7.1701 -16.4212 0 0 0 
697 133 1 -92.5361 -8.48216 -15.5746 0 0 0 
698 134 3 -96.4221 -8.12768 -16.461 0 0 0 
699 134 1 -96.5079 -7.16885 -16.4192 0 0 0 
700 134 1 -96.5269 -8.48178 -15.5739 0 0 0 
701 135 3 43.5945 -8.12635 -16.4575 0 0 0 
702 135 1 43.4818 -7.17016 -16.4212 0 0 0 
703 135 1 43.4636 -8.48217 -15.5747 0 0 0 
704 136 3 47.5945 -8.12635 -16.4575 0 0 0 