ITEM: TIMESTEP
0
ITEM: NUMBER OF ATOMS
6193
ITEM: BOX BOUNDS pp pp pp
-20 20
-40 40
-20 20
ITEM: ATOMS id mol type x y z ix iy iz 
1 1 1 -17.5039 -37.9338 -16.807 0 0 0 
2 1 1 -17.9161 -36.9961 -17.9749 0 0 0 
3 1 2 -17.5953 -37.8801 -17.7648 0 0 0 
4 2 1 -1.57316 -8.76936 -1.22323 0 0 0 
5 2 1 -1.84383 -10.2513 -0.206617 0 0 0 
6 2 1 -3.19975 -9.077 -0.512651 0 0 0 
7 2 1 -1.83772 -8.62521 0.563124 0 0 0 
8 2 3 -2.1117 -9.19228 -0.352129 0 0 0 
9 2 1 -0.671485 -11.2281 0.752532 0 0 0 
10 2 1 -1.30292 -11.8678 -0.785046 0 0 0 
11 2 3 -1.56347 -11.2783 0.108623 0 0 0 
12 2 1 -1.543 -5.36459 2.06404 0 0 0 
13 2 1 -1.79705 -7.01018 1.39425 0 0 0 
14 2 1 -0.878758 -5.75783 0.405642 0 0 0 
15 2 1 -2.65505 -5.60932 0.684511 0 0 0 
16 2 3 -1.69964 -5.9329 1.12717 0 0 0 
17 2 1 -0.806364 -8.41378 2.00613 0 0 0 
18 2 1 -2.59443 -8.45096 2.19564 0 0 0 
19 2 3 -1.76308 -8.12652 1.54312 0 0 0 
20 2 1 1.85449 -3.57147 0.207868 0 0 0 
21 2 1 0.391876 -4.57657 -0.138359 0 0 0 
22 2 1 0.654978 -2.97753 -0.993877 0 0 0 
23 2 1 0.23987 -2.9696 0.730416 0 0 0 
24 2 3 0.78924 -3.52224 -0.0573383 0 0 0 
25 2 1 0.819109 -6.30151 0.170034 0 0 0 
26 2 1 -0.150255 -5.88423 -1.25237 0 0 0 
27 2 3 0.0458736 -5.61416 -0.200067 0 0 0 
28 2 1 0.481765 0.113842 2.23291 0 0 0 
29 2 1 -0.191497 -1.32318 1.39493 0 0 0 
30 2 1 -1.09459 0.254738 1.40787 0 0 0 
31 2 3 -0.103275 -0.20813 1.36666 0 0 0 
32 2 1 -0.0470098 -2.77424 2.48009 0 0 0 
33 2 1 -1.41811 -2.631 1.31813 0 0 0 
34 2 3 -0.34662 -2.40734 1.47907 0 0 0 
35 2 1 1.6434 3.09478 -0.923487 0 0 0 
36 2 1 0.771215 1.55378 -0.585678 0 0 0 
37 2 1 -0.0166489 2.85227 -1.53497 0 0 0 
38 2 1 0.273857 3.08471 0.223111 0 0 0 
39 2 3 0.665885 2.642 -0.699999 0 0 0 
40 2 1 1.91438 0.156213 -0.550143 0 0 0 
41 2 1 0.334121 -0.00874501 -1.36824 0 0 0 
42 2 1 0.416971 0.0731112 0.434931 0 0 0 
43 2 3 0.854559 0.438873 -0.509741 0 0 0 
44 2 1 1.59588 5.55298 1.88249 0 0 0 
45 2 1 0.215416 4.55327 1.29422 0 0 0 
46 2 1 0.475191 6.21605 0.665919 0 0 0 
47 2 1 -0.0778003 5.97404 2.36949 0 0 0 
48 2 3 0.550153 5.58407 1.55509 0 0 0 
49 2 1 0.293656 2.88467 2.01594 0 0 0 
50 2 1 -1.21966 3.4166 1.18563 0 0 0 
51 2 3 -0.112067 3.48987 1.18058 0 0 0 
52 2 1 -0.338802 9.40823 -0.690867 0 0 0 
53 2 1 0.120851 7.83825 -0.0128003 0 0 0 
54 2 1 -1.27608 8.72954 0.68525 0 0 0 
55 2 1 0.415034 9.32209 0.96135 0 0 0 
56 2 3 -0.267886 8.81876 0.238918 0 0 0 
57 2 1 -0.242832 6.36988 -0.990782 0 0 0 
58 2 1 1.44806 6.87553 -0.725374 0 0 0 
59 2 3 0.447394 6.8225 -0.267738 0 0 0 
60 2 1 1.89189 12.4167 1.32992 0 0 0 
61 2 1 0.931421 10.9393 1.68647 0 0 0 
62 2 1 0.155835 12.3637 0.902948 0 0 0 
63 2 1 0.664613 12.4767 2.62318 0 0 0 
64 2 3 0.898142 12.0346 1.63287 0 0 0 
65 2 1 2.11208 9.5937 1.49126 0 0 0 
66 2 1 0.821716 9.47031 2.73088 0 0 0 
67 2 3 1.06272 9.82049 1.71686 0 0 0 
68 2 1 -0.178685 15.2822 -0.822534 0 0 0 
69 2 1 -0.653547 13.7825 0.054994 0 0 0 
70 2 1 -1.78816 15.1971 -0.0536714 0 0 0 
71 2 1 -0.334528 15.3172 0.959969 0 0 0 
72 2 3 -0.730916 14.9174 0.0515126 0 0 0 
73 2 1 -0.248941 12.2797 -0.874876 0 0 0 
74 2 1 -1.57635 12.2638 0.349762 0 0 0 
75 2 3 -0.584142 12.6838 0.100146 0 0 0 
76 2 1 -0.13193 18.3237 2.84088 0 0 0 
77 2 1 -0.437295 16.7356 2.10501 0 0 0 
78 2 1 -1.1549 18.2058 1.32191 0 0 0 
79 2 1 -1.77643 17.6343 2.90834 0 0 0 
80 2 3 -0.883157 17.7444 2.30041 0 0 0 
81 2 1 1.12758 15.9058 1.82154 0 0 0 
82 2 1 -0.19523 15.1204 2.77063 0 0 0 
83 2 3 0.0390558 15.7807 1.92083 0 0 0 
84 2 1 0.0578595 21.0523 1.48617 0 0 0 
85 2 1 -1.08733 19.9105 0.666573 0 0 0 
86 2 1 -0.792486 21.544 -0.00163982 0 0 0 
87 2 1 -1.70347 21.38 1.5399 0 0 0 
88 2 3 -0.878646 20.9646 0.922563 0 0 0 
89 2 1 -0.810512 18.5012 -0.422257 0 0 0 
90 2 1 -2.45101 18.8126 0.256691 0 0 0 
91 2 3 -1.3717 18.8453 0.465304 0 0 0 
92 2 1 -3.41762 24.3171 2.64592 0 0 0 
93 2 1 -2.86825 22.7354 1.9226 0 0 0 
94 2 1 -4.02624 23.8499 1.02599 0 0 0 
95 2 3 -3.16538 23.793 1.7113 0 0 0 
96 2 1 -2.38571 21.5591 3.24334 0 0 0 
97 2 1 -3.41364 20.9952 1.90796 0 0 0 
98 2 3 -2.58502 21.6818 2.15812 0 0 0 
99 2 1 -1.35203 27.3707 -0.203653 0 0 0 
100 2 1 -1.54999 25.9723 0.836527 0 0 0 
101 2 1 -2.87766 27.1826 0.755303 0 0 0 
102 2 1 -1.35013 27.621 1.57507 0 0 0 
103 2 3 -1.78907 27.0293 0.733594 0 0 0 
104 2 1 -0.492692 24.5428 1.35469 0 0 0 
105 2 1 -1.3503 24.5106 -0.229798 0 0 0 
106 2 1 -2.31143 24.3418 1.26043 0 0 0 
107 2 3 -1.41132 24.8564 0.814766 0 0 0 
108 2 1 0.450677 30.4154 2.86801 0 0 0 
109 2 1 -0.801121 29.1224 2.44763 0 0 0 
110 2 1 -0.815758 30.7406 1.64923 0 0 0 
111 2 1 -1.24607 30.6621 3.28473 0 0 0 
112 2 3 -0.571372 30.224 2.56402 0 0 0 
113 2 1 0.0876262 27.5688 2.67777 0 0 0 
114 2 1 -1.54537 27.7966 3.37801 0 0 0 
115 2 3 -0.900683 28.0285 2.50086 0 0 0 
116 2 1 -1.81474 33.7535 -0.097696 0 0 0 
117 2 1 -1.34669 32.3016 0.877136 0 0 0 
118 2 1 -3.01431 32.9921 1.08395 0 0 0 
119 2 1 -1.61813 33.8188 1.65664 0 0 0 
120 2 3 -1.94306 33.2032 0.870418 0 0 0 
121 2 1 -0.167614 31.1731 0.067231 0 0 0 
122 2 1 -1.90785 30.7575 0.218402 0 0 0 
123 2 3 -1.06444 31.2284 0.710451 0 0 0 
124 2 1 0.220992 36.3731 1.4381 0 0 0 
125 2 1 -0.989847 35.3258 2.1541 0 0 0 
126 2 1 -1.42821 36.9672 1.58489 0 0 0 
127 2 1 -0.406994 36.7414 3.05365 0 0 0 
128 2 3 -0.645443 36.3712 2.05033 0 0 0 
129 2 1 -2.08589 34.4282 3.30017 0 0 0 
130 2 1 -0.392135 33.8583 2.97764 0 0 0 
131 2 3 -1.284 34.3532 2.5689 0 0 0 
132 2 1 -5.53314 -31.0888 -1.36458 0 0 0 
133 2 1 -6.51625 -31.6761 0.0120676 0 0 0 
134 2 1 -6.66039 -29.9684 -0.551489 0 0 0 
135 2 1 -5.16316 -30.4698 0.303442 0 0 0 
136 2 3 -5.96418 -30.8019 -0.391445 0 0 0 
137 2 1 -6.08915 -33.4053 0.362217 0 0 0 
138 2 1 -7.67953 -33.0294 -0.355324 0 0 0 
139 2 1 -7.33609 -32.5856 1.343 0 0 0 
140 2 3 -6.90628 -32.6718 0.337927 0 0 0 
141 2 1 -2.90128 -27.7927 0.786406 0 0 0 
142 2 1 -4.11337 -29.1001 0.913232 0 0 0 
143 2 1 -4.50162 -27.6032 -0.0608272 0 0 0 
144 2 1 -4.35377 -27.4988 1.75308 0 0 0 
145 2 3 -3.98288 -27.9913 0.840772 0 0 0 
146 2 1 -3.42231 -30.735 0.555065 0 0 0 
147 2 1 -4.47258 -30.4785 1.98082 0 0 0 
148 2 3 -4.30563 -30.1937 0.927105 0 0 0 
149 2 1 -4.72816 -24.4992 -1.56377 0 0 0 
150 2 1 -5.1488 -26.0564 -0.760105 0 0 0 
151 2 1 -6.24774 -24.6183 -0.619687 0 0 0 
152 2 1 -4.62337 -24.6066 0.231121 0 0 0 
153 2 3 -5.19041 -24.9508 -0.664922 0 0 0 
154 2 1 -4.72725 -27.4343 -1.84208 0 0 0 
155 2 1 -6.1772 -27.5042 -0.774173 0 0 0 
156 2 3 -5.13809 -27.1601 -0.863045 0 0 0 
157 2 1 -3.93691 -21.7063 2.26966 0 0 0 
158 2 1 -4.32066 -23.1293 1.26045 0 0 0 
159 2 1 -5.62626 -22.2492 2.06861 0 0 0 
160 2 3 -4.66302 -22.1261 1.55714 0 0 0 
161 2 1 -2.93839 -24.0446 0.548107 0 0 0 
162 2 1 -3.91595 -24.7822 1.87092 0 0 0 
163 2 3 -3.94849 -24.136 0.981685 0 0 0 
164 2 1 -3.7069 -18.4998 -1.2586 0 0 0 
165 2 1 -4.30485 -19.9236 -0.273077 0 0 0 
166 2 1 -4.49389 -18.2321 0.293739 0 0 0 
167 2 1 -2.86468 -18.9336 0.260522 0 0 0 
168 2 3 -3.8337 -18.9154 -0.250191 0 0 0 
169 2 1 -4.5396 -21.5387 -1.11494 0 0 0 
170 2 1 -5.94433 -20.6522 -0.514904 0 0 0 
171 2 1 -4.80413 -21.4852 0.666101 0 0 0 
172 2 3 -4.87839 -20.8767 -0.29199 0 0 0 
173 2 1 0.413556 -17.7117 0.698012 0 0 0 
174 2 1 -1.31937 -18.1792 0.852604 0 0 0 
175 2 1 -0.833705 -16.6801 -0.0703939 0 0 0 
176 2 1 -0.683623 -16.7065 1.73643 0 0 0 
177 2 3 -0.60846 -17.318 0.811084 0 0 0 
178 2 1 -1.43021 -19.9845 0.498685 0 0 0 
179 2 1 -2.24319 -19.3278 1.94497 0 0 0 
180 2 3 -1.95877 -19.0975 0.901614 0 0 0 
181 2 1 -2.87603 -14.136 -1.57013 0 0 0 
182 2 1 -2.00442 -15.5403 -0.865624 0 0 0 
183 2 1 -3.69103 -15.7261 -1.34328 0 0 0 
184 2 1 -3.29349 -14.6873 0.0906237 0 0 0 
185 2 3 -2.97166 -15.0164 -0.918464 0 0 0 
186 2 1 -0.851177 -16.5725 -1.82574 0 0 0 
187 2 1 -0.274856 -15.165 -0.878817 0 0 0 
188 2 3 -1.00131 -15.9919 -0.906842 0 0 0 
189 2 1 -4.19369 -11.8102 0.754484 0 0 0 
190 2 1 -3.27142 -13.2755 1.19507 0 0 0 
191 2 1 -3.24155 -11.8428 2.27775 0 0 0 
192 2 1 -2.3981 -11.7548 0.674868 0 0 0 
193 2 3 -3.26793 -12.1673 1.22709 0 0 0 
194 2 1 -2.82889 -14.9127 1.81183 0 0 0 
195 2 1 -4.52925 -14.5801 1.40968 0 0 0 
196 2 3 -3.48679 -14.3571 1.13278 0 0 0 
197 3 1 -13.5455 -37.9315 -16.719 0 0 0 
198 3 1 -13.8174 -37.0104 -17.9435 0 0 0 
199 3 2 -13.562 -37.9026 -17.6824 0 0 0 
200 4 1 -9.54386 -37.9672 -16.7454 0 0 0 
201 4 1 -9.90248 -36.9635 -17.8823 0 0 0 
202 4 2 -9.46892 -37.8038 -17.6929 0 0 0 
203 5 1 -5.38326 -37.9118 -16.7324 0 0 0 
204 5 1 -6.34309 -37.1502 -17.6971 0 0 0 
205 5 2 -5.53149 -37.6687 -17.6527 0 0 0 
206 6 1 -1.49394 -38.0973 -16.6872 0 0 0 
207 6 1 -2.15626 -37.2909 -17.8337 0 0 0 
208 6 2 -1.58064 -38.0386 -17.6451 0 0 0 
209 7 1 2.23278 -38.2301 -16.9774 0 0 0 
210 7 1 1.9238 -37.1689 -18.0569 0 0 0 
211 7 2 2.22651 -38.0732 -17.9286 0 0 0 
212 8 1 6.31567 -38.1413 -16.7547 0 0 0 
213 8 1 5.67272 -37.4145 -17.9635 0 0 0 
214 8 2 6.30455 -38.0973 -17.7167 0 0 0 
215 9 1 10.2967 -38.1728 -16.8403 0 0 0 
216 9 1 9.61905 -37.3644 -17.9747 0 0 0 
217 9 2 10.2788 -38.0416 -17.7945 0 0 0 
218 10 1 14.3274 -38.0308 -16.7605 0 0 0 
219 10 1 13.7011 -37.2616 -17.9483 0 0 0 
220 10 2 14.2994 -37.9797 -17.7215 0 0 0 
221 11 1 18.402 -37.9535 -16.7524 0 0 0 
222 11 1 17.9009 -37.1203 -17.9601 0 0 0 
223 11 2 18.3453 -37.9378 -17.7143 0 0 0 
224 12 1 -17.4929 -33.9813 -16.6348 0 0 0 
225 12 1 -17.8986 -33.1366 -17.8855 0 0 0 
226 12 2 -17.6123 -34.0069 -17.5906 0 0 0 
227 13 1 -13.4156 -34.0555 -16.6795 0 0 0 
228 13 1 -14.1768 -33.3854 -17.8613 0 0 0 
229 13 2 -13.5385 -34.0692 -17.6366 0 0 0 
230 14 1 -9.33348 -34.087 -16.8232 0 0 0 
231 14 1 -10.2589 -33.2317 -17.7295 0 0 0 
232 14 2 -9.66356 -33.9881 -17.7238 0 0 0 
233 15 1 -5.1383 -33.7847 -17.4826 0 0 0 
234 15 1 -5.9137 -32.6153 -18.1604 0 0 0 
235 15 2 -5.51954 -33.4835 -18.3118 0 0 0 
236 16 1 -1.26993 -33.8949 -17.4063 0 0 0 
237 16 1 -2.1966 -32.8558 -18.1155 0 0 0 
238 16 2 -1.70637 -33.6758 -18.2365 0 0 0 
239 17 1 2.8649 -33.8127 -17.5513 0 0 0 
240 17 1 2.0027 -32.6251 -18.083 0 0 0 
241 17 2 2.25584 -33.5406 -18.246 0 0 0 
242 18 1 6.9543 -33.7597 -17.7501 0 0 0 
243 18 1 6.09715 -32.5083 -18.1145 0 0 0 
244 18 2 6.19194 -33.4577 -18.2562 0 0 0 
245 19 1 10.8782 -33.8354 -17.6686 0 0 0 
246 19 1 10.1424 -32.5275 -18.0917 0 0 0 
247 19 2 10.1305 -33.4892 -18.1685 0 0 0 
248 20 1 14.761 -33.9141 -17.3501 0 0 0 
249 20 1 14.1555 -32.649 -18.0325 0 0 0 
250 20 2 14.0983 -33.6099 -17.9793 0 0 0 
251 21 1 18.6054 -33.9493 -16.9086 0 0 0 
252 21 1 18.1642 -32.8803 -17.9579 0 0 0 
253 21 2 18.176 -33.8231 -17.7609 0 0 0 
254 22 1 -17.3799 -29.8898 -17.0396 0 0 0 
255 22 1 -17.8976 -28.7155 -17.9235 0 0 0 
256 22 2 -17.8431 -29.6762 -17.8572 0 0 0 
257 23 1 -13.2615 -29.6157 -17.133 0 0 0 
258 23 1 -13.901 -28.4428 -17.9314 0 0 0 
259 23 2 -13.804 -29.4028 -17.8998 0 0 0 
260 24 1 -9.18207 -29.613 -17.0529 0 0 0 
261 24 1 -9.887 -28.4599 -17.8312 0 0 0 
262 24 2 -9.7772 -29.418 -17.7861 0 0 0 
263 25 1 -5.5563 -30.2057 -16.5362 0 0 0 
264 25 1 -5.92228 -29.3647 -17.7864 0 0 0 
265 25 2 -5.93413 -30.2558 -17.4219 0 0 0 
266 26 1 -0.671916 -29.7212 -18.0916 0 0 0 
267 26 1 -1.85638 -28.7019 -18.1201 0 0 0 
268 26 2 -1.52526 -29.5281 -18.4945 0 0 0 
269 27 1 3.00859 -29.9649 -17.2912 0 0 0 
270 27 1 2.16446 -28.8072 -17.8929 0 0 0 
271 27 2 2.24335 -29.7676 -17.844 0 0 0 
272 28 1 6.64166 -29.9397 -16.7477 0 0 0 
273 28 1 6.26309 -28.8779 -17.8206 0 0 0 
274 28 2 6.24331 -29.8205 -17.6189 0 0 0 
275 29 1 10.6738 -29.9384 -16.7565 0 0 0 
276 29 1 10.1925 -28.9395 -17.8505 0 0 0 
277 29 2 10.3513 -29.8713 -17.6628 0 0 0 
278 30 1 14.6827 -29.9495 -16.8312 0 0 0 
279 30 1 14.1253 -28.9386 -17.8764 0 0 0 
280 30 2 14.3439 -29.8654 -17.7298 0 0 0 
281 31 1 18.6654 -29.9482 -16.9551 0 0 0 
282 31 1 18.0779 -28.8574 -17.8978 0 0 0 
283 31 2 18.2554 -29.8009 -17.8148 0 0 0 
284 32 1 -17.1791 -25.939 -16.935 0 0 0 
285 32 1 -17.8905 -24.9301 -17.8842 0 0 0 
286 32 2 -17.7072 -25.8651 -17.7372 0 0 0 
287 33 1 -13.3967 -25.9958 -16.4196 0 0 0 
288 33 1 -13.7863 -25.1425 -17.6659 0 0 0 
289 33 2 -13.7636 -26.0375 -17.3098 0 0 0 
290 34 1 -9.3835 -25.863 -16.5443 0 0 0 
291 34 1 -9.81518 -25.0233 -17.7886 0 0 0 
292 34 2 -9.62681 -25.9157 -17.4749 0 0 0 
293 35 1 -5.03844 -26.0327 -17.0284 0 0 0 
294 35 1 -6.23626 -25.3797 -17.7838 0 0 0 
295 35 2 -5.59751 -26.0982 -17.81 0 0 0 
296 36 1 -1.55717 -26.0633 -16.4089 0 0 0 
297 36 1 -1.875 -25.071 -17.5605 0 0 0 
298 36 2 -1.71613 -25.9978 -17.358 0 0 0 
299 37 1 2.64263 -26.0609 -16.5158 0 0 0 
300 37 1 2.05914 -25.2269 -17.6896 0 0 0 
301 37 2 2.51554 -26.0454 -17.4725 0 0 0 
302 38 1 6.59517 -26.0458 -16.6088 0 0 0 
303 38 1 5.82137 -25.3484 -17.7659 0 0 0 
304 38 2 6.46383 -26.0361 -17.5651 0 0 0 
305 39 1 10.6196 -25.9934 -16.7541 0 0 0 
306 39 1 9.9005 -25.1432 -17.8403 0 0 0 
307 39 2 10.4147 -25.9439 -17.6958 0 0 0 
308 40 1 14.6579 -25.9546 -16.9204 0 0 0 
309 40 1 13.981 -24.98 -17.9268 0 0 0 
310 40 2 14.3525 -25.8633 -17.8304 0 0 0 
311 41 1 18.7542 -25.9183 -17.0541 0 0 0 
312 41 1 18.0369 -24.9063 -17.9949 0 0 0 
313 41 2 18.3069 -25.8267 -17.9022 0 0 0 
314 42 1 -17.4212 -21.9974 -16.5683 0 0 0 
315 42 1 -17.7759 -21.0854 -17.7827 0 0 0 
316 42 2 -17.6453 -21.9982 -17.506 0 0 0 
317 43 1 -13.4075 -22.1408 -16.5876 0 0 0 
318 43 1 -13.917 -21.1779 -17.6875 0 0 0 
319 43 2 -13.5254 -22.0426 -17.539 0 0 0 
320 44 1 -9.47613 -22.2692 -16.7368 0 0 0 
321 44 1 -10.152 -21.4032 -17.8304 0 0 0 
322 44 2 -9.65711 -22.2148 -17.6818 0 0 0 
323 45 1 -4.74389 -21.3773 -17.6387 0 0 0 
324 45 1 -6.02817 -20.5143 -17.8445 0 0 0 
325 45 2 -5.54786 -21.2878 -18.1618 0 0 0 
326 46 1 -1.17226 -21.948 -17.3991 0 0 0 
327 46 1 -1.94714 -20.7485 -18.024 0 0 0 
328 46 2 -1.93718 -21.707 -17.9333 0 0 0 
329 47 1 2.4314 -21.8574 -16.9152 0 0 0 
330 47 1 2.26491 -20.5905 -17.7993 0 0 0 
331 47 2 2.19313 -21.5522 -17.7989 0 0 0 
332 48 1 6.64664 -21.8564 -17.1723 0 0 0 
333 48 1 6.17227 -20.5856 -17.9395 0 0 0 
334 48 2 6.3133 -21.5369 -18.017 0 0 0 
335 49 1 10.6807 -21.9031 -17.0522 0 0 0 
336 49 1 10.1586 -20.7406 -17.9488 0 0 0 
337 49 2 10.2616 -21.6978 -17.8943 0 0 0 
338 50 1 14.6633 -21.9242 -16.9198 0 0 0 
339 50 1 14.1777 -20.8446 -17.9321 0 0 0 
340 50 2 14.2615 -21.7936 -17.7853 0 0 0 
341 51 1 18.6199 -21.9471 -16.7582 0 0 0 
342 51 1 18.2005 -20.9461 -17.875 0 0 0 
343 51 2 18.2972 -21.8812 -17.6639 0 0 0 
344 52 1 -17.5694 -18.002 -16.6171 0 0 0 
345 52 1 -18.062 -17.2885 -17.9074 0 0 0 
346 52 2 -17.414 -17.9121 -17.5644 0 0 0 
347 53 1 -13.5575 -17.9454 -16.8022 0 0 0 
348 53 1 -14.1958 -17.1668 -17.9864 0 0 0 
349 53 2 -13.4213 -17.6724 -17.7168 0 0 0 
350 54 1 -9.49715 -17.8209 -16.8691 0 0 0 
351 54 1 -10.3914 -16.9429 -17.792 0 0 0 
352 54 2 -9.57049 -17.4477 -17.7546 0 0 0 
353 55 1 -4.93868 -17.5489 -17.3301 0 0 0 
354 55 1 -6.43585 -17.2422 -17.6653 0 0 0 
355 55 2 -5.67427 -17.7806 -17.9102 0 0 0 
356 56 1 -1.22403 -17.7079 -16.5718 0 0 0 
357 56 1 -1.7581 -16.4983 -17.3923 0 0 0 
358 56 2 -1.76625 -17.461 -17.3309 0 0 0 
359 57 1 2.70589 -17.9931 -16.6296 0 0 0 
360 57 1 2.19882 -17.025 -17.7374 0 0 0 
361 57 2 2.28883 -17.9539 -17.4977 0 0 0 
362 58 1 6.58185 -17.981 -16.5736 0 0 0 
363 58 1 6.25 -17.0582 -17.7855 0 0 0 
364 58 2 6.29493 -17.9752 -17.4944 0 0 0 
365 59 1 10.525 -17.9365 -16.6205 0 0 0 
366 59 1 10.1532 -17.05 -17.8483 0 0 0 
367 59 2 10.3598 -17.9486 -17.5708 0 0 0 
368 60 1 14.5247 -17.9514 -16.6215 0 0 0 
369 60 1 14.088 -17.1349 -17.8767 0 0 0 
370 60 2 14.4324 -17.9839 -17.5811 0 0 0 
371 61 1 18.4766 -17.9873 -16.5979 0 0 0 
372 61 1 18.0337 -17.2229 -17.8804 0 0 0 
373 61 2 18.5083 -17.9971 -17.5619 0 0 0 
374 62 1 -17.2205 -13.85 -17.235 0 0 0 
375 62 1 -17.932 -12.6412 -17.9193 0 0 0 
376 62 2 -17.8676 -13.6038 -17.9047 0 0 0 
377 63 1 -13.0665 -13.7326 -17.3949 0 0 0 
378 63 1 -13.9101 -12.5441 -17.9526 0 0 0 
379 63 2 -13.8619 -13.5059 -17.8891 0 0 0 
380 64 1 -8.92685 -13.6231 -17.527 0 0 0 
381 64 1 -9.86644 -12.4638 -17.9588 0 0 0 
382 64 2 -9.77098 -13.4232 -17.9479 0 0 0 
383 65 1 -4.98605 -13.715 -17.2524 0 0 0 
384 65 1 -5.78256 -12.4641 -17.718 0 0 0 
385 65 2 -5.81088 -13.4247 -17.6563 0 0 0 
386 66 1 -1.30251 -13.869 -16.5193 0 0 0 
387 66 1 -1.62613 -12.8586 -17.6417 0 0 0 
388 66 2 -1.65412 -13.7935 -17.4141 0 0 0 
389 67 1 2.44216 -13.9534 -16.422 0 0 0 
390 67 1 2.2443 -13.0395 -17.6585 0 0 0 
391 67 2 2.38315 -13.9509 -17.3843 0 0 0 
392 68 1 6.64715 -13.9829 -16.7731 0 0 0 
393 68 1 6.10859 -12.9964 -17.8462 0 0 0 
394 68 2 6.5072 -13.8628 -17.7199 0 0 0 
395 69 1 10.7229 -13.952 -16.8946 0 0 0 
396 69 1 10.066 -12.9481 -17.8877 0 0 0 
397 69 2 10.4422 -13.8315 -17.808 0 0 0 
398 70 1 14.6864 -13.9558 -16.9859 0 0 0 
399 70 1 14.0952 -12.8281 -17.8848 0 0 0 
400 70 2 14.3294 -13.7628 -17.8592 0 0 0 
401 71 1 18.6992 -13.94 -17.1033 0 0 0 
402 71 1 18.0808 -12.7392 -17.8838 0 0 0 
403 71 2 18.2133 -13.6943 -17.8976 0 0 0 
404 72 1 -17.303 -9.82268 -16.8105 0 0 0 
405 72 1 -17.8476 -8.93655 -17.9694 0 0 0 
406 72 2 -17.6499 -9.84294 -17.7096 0 0 0 
407 73 1 -13.4267 -9.9278 -16.5987 0 0 0 
408 73 1 -13.8125 -9.02969 -17.8075 0 0 0 
409 73 2 -13.5487 -9.92022 -17.5563 0 0 0 
410 74 1 -9.61085 -10.2061 -16.3802 0 0 0 
411 74 1 -9.92043 -9.45679 -17.7075 0 0 0 
412 74 2 -9.45159 -10.2074 -17.3321 0 0 0 
413 75 1 -5.6928 -10.1608 -16.5908 0 0 0 
414 75 1 -5.91545 -9.46726 -17.9628 0 0 0 
415 75 2 -5.38992 -10.1334 -17.5076 0 0 0 
416 76 1 -1.45421 -10.1985 -16.4113 0 0 0 
417 76 1 -2.52058 -10.2185 -17.5506 0 0 0 
418 76 2 -1.62491 -10.4901 -17.3147 0 0 0 
419 77 1 2.55852 -10.1096 -16.7621 0 0 0 
420 77 1 1.74081 -9.39536 -17.8777 0 0 0 
421 77 2 2.42696 -10.0501 -17.7157 0 0 0 
422 78 1 6.65043 -9.97765 -17.0147 0 0 0 
423 78 1 5.81042 -9.11178 -17.9996 0 0 0 
424 78 2 6.39493 -9.87396 -17.9378 0 0 0 
425 79 1 10.5757 -9.92351 -16.7723 0 0 0 
426 79 1 9.96944 -8.99223 -17.8628 0 0 0 
427 79 2 10.3577 -9.85939 -17.71 0 0 0 
428 80 1 14.6527 -9.91156 -16.8221 0 0 0 
429 80 1 14.0623 -8.94437 -17.8911 0 0 0 
430 80 2 14.3344 -9.85414 -17.7299 0 0 0 
431 81 1 18.7113 -9.86162 -16.8847 0 0 0 
432 81 1 18.1197 -8.91063 -17.9686 0 0 0 
433 81 2 18.2945 -9.8334 -17.7524 0 0 0 
434 82 1 -17.5446 -6.01965 -16.5045 0 0 0 
435 82 1 -17.9386 -5.28985 -17.8233 0 0 0 
436 82 2 -17.4323 -6.02455 -17.4623 0 0 0 
437 83 1 -13.5154 -6.02304 -16.4216 0 0 0 
438 83 1 -14.0281 -5.48158 -17.7904 0 0 0 
439 83 2 -13.2949 -5.93136 -17.3561 0 0 0 
440 84 1 -9.39594 -5.95328 -16.6094 0 0 0 
441 84 1 -10.4545 -5.32084 -17.5568 0 0 0 
442 84 2 -9.51856 -5.54467 -17.4742 0 0 0 
443 85 1 -5.31912 -6.03434 -17.2096 0 0 0 
444 85 1 -6.7 -5.45711 -17.6719 0 0 0 
445 85 2 -5.85819 -5.8162 -17.9775 0 0 0 
446 86 1 -1.03644 -5.39702 -17.589 0 0 0 
447 86 1 -1.87644 -4.20418 -18.1412 0 0 0 
448 86 2 -1.63607 -5.12583 -18.2915 0 0 0 
449 87 1 2.61043 -5.69515 -17.4956 0 0 0 
450 87 1 1.99204 -4.44172 -18.1865 0 0 0 
451 87 2 2.12094 -5.39482 -18.2678 0 0 0 
452 88 1 6.72896 -5.88599 -17.2014 0 0 0 
453 88 1 6.07921 -4.68674 -17.9546 0 0 0 
454 88 2 6.2799 -5.62739 -18.0144 0 0 0 
455 89 1 10.7556 -5.91431 -16.952 0 0 0 
456 89 1 10.1549 -4.76116 -17.8123 0 0 0 
457 89 2 10.3048 -5.71292 -17.7784 0 0 0 
458 90 1 14.6357 -5.9446 -16.7759 0 0 0 
459 90 1 14.1625 -4.9077 -17.8411 0 0 0 
460 90 2 14.3428 -5.84171 -17.6877 0 0 0 
461 91 1 18.5332 -5.97689 -16.6502 0 0 0 
462 91 1 18.1139 -5.06952 -17.8475 0 0 0 
463 91 2 18.444 -5.94227 -17.6095 0 0 0 
464 92 1 -17.3762 -1.91679 -17.0606 0 0 0 
465 92 1 -17.8515 -0.731072 -17.951 0 0 0 
466 92 2 -17.7378 -1.68853 -17.9237 0 0 0 
467 93 1 -13.3813 -1.88895 -17.2389 0 0 0 
468 93 1 -13.7757 -0.606508 -18.0283 0 0 0 
469 93 2 -13.7619 -1.57099 -18.064 0 0 0 
470 94 1 -9.29679 -1.65993 -17.3634 0 0 0 
471 94 1 -9.81019 -0.408178 -18.1319 0 0 0 
472 94 2 -9.80869 -1.37246 -18.1259 0 0 0 
473 95 1 -5.2272 -1.52997 -17.1988 0 0 0 
474 95 1 -5.81624 -0.350572 -18.0235 0 0 0 
475 95 2 -5.67735 -1.30384 -18.0196 0 0 0 
476 96 1 -1.15497 -1.74349 -16.8105 0 0 0 
477 96 1 -2.02661 -0.607338 -17.4224 0 0 0 
478 96 2 -1.77674 -1.53239 -17.5168 0 0 0 
479 97 1 3.02724 -1.91972 -17.2968 0 0 0 
480 97 1 1.98157 -1.14782 -18.1612 0 0 0 
481 97 2 2.19862 -2.00487 -17.7813 0 0 0 
482 98 1 6.8444 -1.93886 -17.0536 0 0 0 
483 98 1 6.17444 -0.895478 -17.9957 0 0 0 
484 98 2 6.20873 -1.83115 -17.7703 0 0 0 
485 99 1 10.5164 -1.94193 -16.4674 0 0 0 
486 99 1 10.2592 -0.992473 -17.6733 0 0 0 
487 99 2 10.2289 -1.91183 -17.3883 0 0 0 
488 100 1 14.5744 -1.95733 -16.694 0 0 0 
489 100 1 14.1642 -0.930611 -17.7873 0 0 0 
490 100 2 14.3296 -1.86476 -17.6229 0 0 0 
491 101 1 18.6257 -1.94459 -16.8988 0 0 0 
492 101 1 18.1169 -0.851245 -17.8831 0 0 0 
493 101 2 18.2939 -1.79405 -17.7909 0 0 0 
494 102 1 -17.4424 2.04989 -16.6477 0 0 0 
495 102 1 -17.8419 2.90188 -17.8924 0 0 0 
496 102 2 -17.6598 2.00739 -17.586 0 0 0 
497 103 1 -13.5047 2.00806 -16.5528 0 0 0 
498 103 1 -13.8749 2.73668 -17.8826 0 0 0 
499 103 2 -13.6063 1.89343 -17.5051 0 0 0 
500 104 1 -9.47804 2.03564 -16.5188 0 0 0 
501 104 1 -9.97591 2.60564 -17.8842 0 0 0 
502 104 2 -9.48233 1.88969 -17.473 0 0 0 
503 105 1 -5.54361 2.05777 -16.3217 0 0 0 
504 105 1 -5.97767 2.56368 -17.7237 0 0 0 
505 105 2 -5.46092 1.89435 -17.2677 0 0 0 
506 106 1 -1.34753 1.87092 -16.8696 0 0 0 
507 106 1 -2.0817 2.82487 -17.8454 0 0 0 
508 106 2 -1.35881 2.19036 -17.7787 0 0 0 
509 107 1 2.61928 2.10712 -17.2885 0 0 0 
510 107 1 1.54185 2.73006 -18.2253 0 0 0 
511 107 2 2.39659 2.28296 -18.2075 0 0 0 
512 108 1 6.86041 2.10027 -17.295 0 0 0 
513 108 1 5.71745 2.79896 -18.0926 0 0 0 
514 108 2 6.41963 2.1416 -18.1508 0 0 0 
515 109 1 10.6507 2.09036 -16.8031 0 0 0 
516 109 1 9.98836 3.02342 -17.8622 0 0 0 
517 109 2 10.3164 2.13233 -17.7066 0 0 0 
518 110 1 14.6026 2.08879 -16.7996 0 0 0 
519 110 1 14.0851 3.07717 -17.8881 0 0 0 
520 110 2 14.3195 2.15891 -17.7186 0 0 0 
521 111 1 18.6001 2.07299 -16.7593 0 0 0 
522 111 1 18.1205 3.01627 -17.9043 0 0 0 
523 111 2 18.336 2.10339 -17.6856 0 0 0 
524 112 1 -17.4207 6.0153 -16.7314 0 0 0 
525 112 1 -17.9512 7.03636 -17.7828 0 0 0 
526 112 2 -17.5187 6.183 -17.676 0 0 0 
527 113 1 -13.3998 6.02121 -16.8732 0 0 0 
528 113 1 -14.066 7.11231 -17.766 0 0 0 
529 113 2 -13.5452 6.30271 -17.7833 0 0 0 
530 114 1 -9.47244 6.12045 -16.8198 0 0 0 
531 114 1 -10.0692 7.26733 -17.6931 0 0 0 
532 114 2 -9.64598 6.403 -17.7248 0 0 0 
533 115 1 -5.45456 6.31685 -16.874 0 0 0 
534 115 1 -6.03807 7.50403 -17.7041 0 0 0 
535 115 2 -5.64094 6.62721 -17.7671 0 0 0 
536 116 1 -1.57054 5.9769 -17.1034 0 0 0 
537 116 1 -2.17798 7.19674 -17.8576 0 0 0 
538 116 2 -1.73226 6.35167 -17.9765 0 0 0 
539 117 1 2.87158 6.28375 -17.9177 0 0 0 
540 117 1 1.78919 7.3224 -18.3569 0 0 0 
541 117 2 2.25075 6.51629 -18.6144 0 0 0 
542 118 1 7.12385 6.25458 -17.9479 0 0 0 
543 118 1 6.04181 7.35185 -18.2006 0 0 0 
544 118 2 6.30015 6.44728 -18.4109 0 0 0 
545 119 1 10.8212 6.12388 -17.1639 0 0 0 
546 119 1 10.1143 7.30438 -17.8908 0 0 0 
547 119 2 10.1261 6.34476 -17.7935 0 0 0 
548 120 1 14.6157 6.09107 -16.7655 0 0 0 
549 120 1 14.2097 7.19192 -17.7914 0 0 0 
550 120 2 14.235 6.24056 -17.6388 0 0 0 
551 121 1 18.5918 6.05404 -16.7028 0 0 0 
552 121 1 18.1496 7.07865 -17.7931 0 0 0 
553 121 2 18.3949 6.15992 -17.6403 0 0 0 
554 122 1 -17.3089 10.0895 -16.9985 0 0 0 
555 122 1 -17.7955 11.2168 -17.9526 0 0 0 
556 122 2 -17.7459 10.2603 -17.8399 0 0 0 
557 123 1 -13.2604 10.136 -17.1319 0 0 0 
558 123 1 -13.758 11.3131 -18.0139 0 0 0 
559 123 2 -13.7327 10.3514 -17.9426 0 0 0 
560 124 1 -9.15317 10.1167 -17.2078 0 0 0 
561 124 1 -9.75868 11.3192 -17.9817 0 0 0 
562 124 2 -9.73756 10.3565 -17.9341 0 0 0 
563 125 1 -5.12769 10.1368 -17.1143 0 0 0 
564 125 1 -5.86311 11.1193 -18.0683 0 0 0 
565 125 2 -5.78711 10.1938 -17.8138 0 0 0 
566 126 1 -1.04888 10.1489 -17.3756 0 0 0 
567 126 1 -1.72881 11.379 -18.0376 0 0 0 
568 126 2 -1.66768 10.4172 -18.0627 0 0 0 
569 127 1 3.13199 10.1794 -17.6194 0 0 0 
570 127 1 2.13176 11.2735 -18.106 0 0 0 
571 127 2 2.36719 10.3422 -18.1817 0 0 0 
572 128 1 6.77018 10.0448 -17.0255 0 0 0 
573 128 1 6.20987 11.1569 -17.9587 0 0 0 
574 128 2 6.2787 10.2032 -17.8406 0 0 0 
575 129 1 10.662 10.0144 -16.6588 0 0 0 
576 129 1 10.2396 10.9821 -17.8027 0 0 0 
577 129 2 10.3502 10.054 -17.5713 0 0 0 
578 130 1 14.6256 10.0022 -16.6939 0 0 0 
579 130 1 14.2368 11.0388 -17.7836 0 0 0 
580 130 2 14.371 10.0999 -17.6197 0 0 0 
581 131 1 18.6767 10.0451 -16.8354 0 0 0 
582 131 1 18.2022 11.1253 -17.8497 0 0 0 
583 131 2 18.3087 10.1768 -17.7165 0 0 0 
584 132 1 -17.5144 14.0209 -16.564 0 0 0 
585 132 1 -18.0049 14.7426 -17.8528 0 0 0 
586 132 2 -17.488 13.9987 -17.5281 0 0 0 
587 133 1 -13.5757 13.8732 -16.4348 0 0 0 
588 133 1 -14.0272 14.4701 -17.7957 0 0 0 
589 133 2 -13.4692 13.7993 -17.3906 0 0 0 
590 134 1 -9.63368 13.7791 -16.4791 0 0 0 
591 134 1 -10.0995 14.312 -17.8629 0 0 0 
592 134 2 -9.45951 13.7398 -17.427 0 0 0 
593 135 1 -5.57064 13.9298 -16.797 0 0 0 
594 135 1 -6.32359 14.2754 -18.1126 0 0 0 
595 135 2 -5.51924 13.8798 -17.7577 0 0 0 
596 136 1 -1.55638 13.9564 -16.3504 0 0 0 
597 136 1 -2.47095 14.2083 -17.5866 0 0 0 
598 136 2 -1.65347 13.7901 -17.2955 0 0 0 
599 137 1 2.45856 13.8036 -17.0397 0 0 0 
600 137 1 1.7319 14.8194 -17.9499 0 0 0 
601 137 2 2.33586 14.0695 -17.9592 0 0 0 
602 138 1 6.46628 14.1506 -16.8068 0 0 0 
603 138 1 5.46183 14.6627 -17.8783 0 0 0 
604 138 2 6.29308 14.1913 -17.7552 0 0 0 
605 139 1 10.4983 14.1223 -16.8157 0 0 0 
606 139 1 9.60538 14.7872 -17.9028 0 0 0 
607 139 2 10.3428 14.1838 -17.7661 0 0 0 
608 140 1 14.5274 14.0991 -16.8282 0 0 0 
609 140 1 13.7969 14.9024 -17.9436 0 0 0 
610 140 2 14.3853 14.1585 -17.7798 0 0 0 
611 141 1 18.5234 14.0815 -16.7043 0 0 0 
612 141 1 17.9534 14.8942 -17.905 0 0 0 
613 141 2 18.4482 14.1039 -17.6656 0 0 0 
614 142 1 -17.3464 18.0531 -17.0603 0 0 0 
615 142 1 -17.7802 19.2957 -17.8918 0 0 0 
616 142 2 -17.8529 18.3361 -17.8294 0 0 0 
617 143 1 -13.384 18.1624 -17.1445 0 0 0 
618 143 1 -13.7803 19.469 -17.8876 0 0 0 
619 143 2 -13.8581 18.5077 -17.9067 0 0 0 
620 144 1 -9.08091 18.2078 -17.5087 0 0 0 
621 144 1 -9.69577 19.5331 -18.047 0 0 0 
622 144 2 -9.65672 18.5797 -18.184 0 0 0 
623 145 1 -5.39377 18.3707 -16.8123 0 0 0 
624 145 1 -5.76181 19.5062 -17.8118 0 0 0 
625 145 2 -5.81872 18.557 -17.6568 0 0 0 
626 146 1 -0.613261 18.6443 -17.8498 0 0 0 
627 146 1 -1.83762 19.5861 -18.0146 0 0 0 
628 146 2 -1.51355 18.6961 -18.1881 0 0 0 
629 147 1 3.05253 18.2391 -18.0373 0 0 0 
630 147 1 2.15855 19.5094 -18.0829 0 0 0 
631 147 2 2.21891 18.59 -18.3695 0 0 0 
632 148 1 7.11038 18.3187 -18.089 0 0 0 
633 148 1 6.14876 19.5384 -18.0576 0 0 0 
634 148 2 6.24699 18.6335 -18.3795 0 0 0 
635 149 1 10.8814 18.1902 -17.6193 0 0 0 
636 149 1 10.1142 19.5064 -17.9323 0 0 0 
637 149 2 10.0823 18.5457 -18.0236 0 0 0 
638 150 1 14.7404 18.1187 -17.1798 0 0 0 
639 150 1 14.1861 19.3773 -17.9087 0 0 0 
640 150 2 14.0942 18.4202 -17.8278 0 0 0 
641 151 1 18.7027 18.0784 -17.0158 0 0 0 
642 151 1 18.2237 19.2745 -17.8905 0 0 0 
643 151 2 18.1345 18.3241 -17.7534 0 0 0 
644 152 1 -17.3587 21.9765 -16.6777 0 0 0 
645 152 1 -18.0009 22.7431 -17.8734 0 0 0 
646 152 2 -17.5307 21.9398 -17.6261 0 0 0 
647 153 1 -13.5465 21.939 -16.3763 0 0 0 
648 153 1 -13.9396 22.4745 -17.7861 0 0 0 
649 153 2 -13.4705 21.7738 -17.3235 0 0 0 
650 154 1 -9.55531 21.8208 -16.288 0 0 0 
651 154 1 -10.0127 22.3595 -17.6719 0 0 0 
652 154 2 -9.3401 21.8315 -17.229 0 0 0 
653 155 1 -5.54436 21.9674 -16.2361 0 0 0 
654 155 1 -6.42313 22.1488 -17.5033 0 0 0 
655 155 2 -5.55237 21.8713 -17.1947 0 0 0 
656 156 1 -1.57609 21.9384 -16.3827 0 0 0 
657 156 1 -2.33955 22.2621 -17.7048 0 0 0 
658 156 2 -1.51486 21.916 -17.3454 0 0 0 
659 157 1 2.58289 21.9619 -16.5993 0 0 0 
660 157 1 1.79508 22.5364 -17.809 0 0 0 
661 157 2 2.53622 21.9731 -17.5629 0 0 0 
662 158 1 6.61531 22.0307 -16.5527 0 0 0 
663 158 1 5.87177 22.5765 -17.808 0 0 0 
664 158 2 6.54415 21.9548 -17.5123 0 0 0 
665 159 1 10.6344 22.0015 -16.5499 0 0 0 
666 159 1 10.0047 22.7115 -17.7827 0 0 0 
667 159 2 10.5585 21.973 -17.511 0 0 0 
668 160 1 14.6434 22.0173 -16.5865 0 0 0 
669 160 1 14.0277 22.7548 -17.8149 0 0 0 
670 160 2 14.5467 21.9894 -17.5459 0 0 0 
671 161 1 18.6574 22.0092 -16.6594 0 0 0 
672 161 1 18.007 22.774 -17.852 0 0 0 
673 161 2 18.5039 21.9848 -17.6114 0 0 0 
674 162 1 -17.4193 26.132 -17.0154 0 0 0 
675 162 1 -17.8515 27.3139 -17.9316 0 0 0 
676 162 2 -17.7636 26.3539 -17.8874 0 0 0 
677 163 1 -13.4381 26.1683 -17.0462 0 0 0 
678 163 1 -13.8394 27.4205 -17.8793 0 0 0 
679 163 2 -13.7885 26.4568 -17.8953 0 0 0 
680 164 1 -9.20452 26.049 -17.1381 0 0 0 
681 164 1 -9.86555 27.3442 -17.7098 0 0 0 
682 164 2 -9.82084 26.3845 -17.7974 0 0 0 
683 165 1 -5.43475 26.6045 -16.6383 0 0 0 
684 165 1 -5.6859 27.8045 -17.608 0 0 0 
685 165 2 -5.74898 26.8476 -17.5164 0 0 0 
686 166 1 -1.1312 26.2885 -17.2213 0 0 0 
687 166 1 -1.75836 27.5066 -17.9559 0 0 0 
688 166 2 -1.67697 26.5479 -17.9709 0 0 0 
689 167 1 2.70317 26.157 -17.3221 0 0 0 
690 167 1 2.29087 27.4122 -18.139 0 0 0 
691 167 2 2.27569 26.449 -18.1347 0 0 0 
692 168 1 6.74195 26.1022 -17.3169 0 0 0 
693 168 1 6.21548 27.3847 -18.025 0 0 0 
694 168 2 6.25274 26.423 -18.0824 0 0 0 
695 169 1 10.6467 26.1185 -17.0061 0 0 0 
696 169 1 10.2739 27.3225 -17.9192 0 0 0 
697 169 2 10.2492 26.361 -17.8497 0 0 0 
698 170 1 14.6071 26.1022 -16.9124 0 0 0 
699 170 1 14.2201 27.2742 -17.8603 0 0 0 
700 170 2 14.2629 26.3132 -17.7881 0 0 0 
701 171 1 18.6102 26.1123 -16.9748 0 0 0 
702 171 1 18.1654 27.2874 -17.8948 0 0 0 
703 171 2 18.2463 26.3272 -17.8409 0 0 0 
704 172 1 -17.3371 30.0522 -16.6385 0 0 0 
705 172 1 -17.8773 30.7546 -17.9244 0 0 0 
706 172 2 -17.6792 29.901 -17.5271 0 0 0 
707 173 1 -13.4648 30.0402 -16.4647 0 0 0 
708 173 1 -13.8583 30.6589 -17.8451 0 0 0 
709 173 2 -13.6316 29.8406 -17.393 0 0 0 
710 174 1 -9.5082 30.1273 -16.5051 0 0 0 
711 174 1 -9.80208 30.8813 -17.8404 0 0 0 
712 174 2 -9.44046 30.0712 -17.4655 0 0 0 
713 175 1 -5.30544 30.1766 -16.3782 0 0 0 
714 175 1 -5.96849 30.8461 -17.6118 0 0 0 