LAMMPS (24 Apr 2013)
WARNING: OMP_NUM_THREADS environment is not set. (../comm.cpp:100)
  using 1 OpenMP thread(s) per MPI task
# ----------------- Init Section -----------------
units           real
atom_style      full
boundary	p p p
kspace_style	pppm 1.0e-4

# ----------------- Atom Definition Section -----------------
read_restart	confout-4.data
  orthogonal box = (14.7879 2.81139 2.81139) to (248.212 47.1886 47.1886)
  1 by 1 by 1 MPI processor grid
  44200 atoms
  29498 bonds
  14700 angles
  2 = max # of 1-2 neighbors
  2 = max # of 1-3 neighbors
  4 = max # of 1-4 neighbors
  6 = max # of special neighbors

# ----------------- Settings Section -----------------------

group 		spc		type	1 2
44100 atoms in group spc
group		p1_end_atom	id 	44150
1 atoms in group p1_end_atom
group		p2_end_atom	id 	44200
1 atoms in group p2_end_atom

# ----------------- Run Section -----------------
# Write initial structure out
dump            icrd all custom 5 system-5.lammpstrj id mol type x y z ix iy iz
dump_modify     icrd sort id
run             1
WARNING: No fixes defined, atoms won't move (../verlet.cpp:54)
PPPM initialization ...
  G vector (1/distance) = 0.263235
  grid = 90 25 25
  stencil order = 5
  estimated absolute RMS force accuracy = 0.040185
  estimated relative force accuracy = 0.000121016
  using double precision FFTs
  3d grid and FFT values/proc = 97280 56250
Memory usage per processor = 118.429 Mbytes
Step Temp E_pair E_mol TotEng Press 
  450004    200.04633   -145389.85    30.812224   -119003.16    24473.273 
  450005    200.04633   -145389.85    30.812224   -119003.16    24473.273 
Loop time of 0.588772 on 1 procs (1 MPI x 1 OpenMP) for 1 steps with 44200 atoms

Pair  time (%) = 0.454023 (77.1136)
Bond  time (%) = 0.00329399 (0.559468)
Kspce time (%) = 0.0351169 (5.96443)
Neigh time (%) = 0 (0)
Comm  time (%) = 0.000748158 (0.127071)
Outpt time (%) = 0.095305 (16.1871)
Other time (%) = 0.000284672 (0.0483501)

FFT time (% of Kspce) = 0.00815929 (23.2346)
FFT Gflps 3d (1d only) = 1.50807 2.94654

Nlocal:    44200 ave 44200 max 44200 min
Histogram: 1 0 0 0 0 0 0 0 0 0
Nghost:    70146 ave 70146 max 70146 min
Histogram: 1 0 0 0 0 0 0 0 0 0
Neighs:    1.4626e+07 ave 1.4626e+07 max 1.4626e+07 min
Histogram: 1 0 0 0 0 0 0 0 0 0

Total # of neighbors = 14625953
Ave neighs/atom = 330.904
Ave special neighs/atom = 2.00851
Neighbor list builds = 0
Dangerous builds = 0

# Reset the timestep
undump          icrd

# Timestep and Neighbour searching
timestep	2.0
neighbor        2.0 bin
neigh_modify	delay 4 every 1 check yes

# Fixes
fix 		pull p1_end_atom addforce  1.0 0.0 0.0
fix 		pull p2_end_atom addforce -1.0 0.0 0.0
WARNING: Replacing a fix, but new group != old group (../modify.cpp:657)
fix 		shake spc shake 0.0001 10 0 b 1 a 1
  0 = # of size 2 clusters
  0 = # of size 3 clusters
  0 = # of size 4 clusters
  14700 = # of frozen angles
fix   		npt all npt temp 300.0 300.0 100.0 iso 1.0 1.0 1000.0

# Initial velocity
#velocity		all create 300 432567 dist uniform

# Write out thermodynamic information
thermo_style    custom step temp press vol pe ke evdwl ecoul epair
thermo	        250

# Write out trajectory
dump            cxtc all xtc 250 traj-5.xtc

# Write out velocity
#dump 		1 all custom 1 vel_npt.txt vx vy vz

# Checkpoint files
restart         5000 state_cpt-*.data

# Final run command
run             100000
PPPM initialization ...
  G vector (1/distance) = 0.263235
  grid = 90 25 25
  stencil order = 5
  estimated absolute RMS force accuracy = 0.040185
  estimated relative force accuracy = 0.000121016
  using double precision FFTs
  3d grid and FFT values/proc = 97280 56250
Memory usage per processor = 125.568 Mbytes
Step Temp Press Volume PotEng KinEng E_vdwl E_coul E_pair 
  450005    299.73382    169.29419    459690.72   -145359.03    26355.869    25182.889    560106.21   -145389.85 
  450250     301.4526    16.514712    460642.64   -145093.26    26507.003    24797.227    560760.73   -145125.19 
  450500    301.05004    121.55157    460571.77   -145273.14    26471.606    25065.373    560324.08   -145297.85 
  450750    299.77801   -67.390467    461019.33      -145181    26359.755     24693.63     560777.3   -145205.93 
  451000    300.83038    86.006617    458985.35   -145392.42    26452.291    25033.636    560228.29   -145427.13 
  451250    297.03122  -0.83615191    459092.68    -145007.9    26118.227    24725.941    560929.11   -145037.07 
  451500     301.0269    53.971392    459548.78   -145113.25    26469.571    24886.421    560664.75   -145139.13 
  451750    298.96526   -3.0160081    459386.68   -145342.25    26288.289    24794.421    560522.33   -145381.36 
  452000    299.88722   -117.73469     459786.3    -145176.6    26369.358    24501.696    560985.44   -145204.43 
  452250    300.76386    47.621327    459336.83   -145342.83    26446.442    24977.303    560324.66   -145376.92 
  452500    299.32069   -4.8175737    461013.89    -145051.2    26319.542    24813.121     560784.3   -145083.15 
  452750    297.59892    30.477252    460087.12   -145618.34    26168.146    25107.608    559934.19   -145647.57 
  453000    299.24734   -71.085969    458176.15   -145004.15    26313.093    24462.199    561179.32   -145034.95 
  453250    297.91737   -1.9295436    458910.91   -144918.91    26196.147    24696.334    561027.05   -144944.76 
  453500    300.70916   -120.16906    459316.53    -145155.6    26441.632    24560.919     560947.5   -145182.65 
  453750     299.1311    6.1940269    459581.86   -145112.55    26302.871    24696.604     560853.8   -145145.07 
  454000    299.60707    105.00192    459668.64   -144943.14    26344.724    24801.502    560904.91   -144972.12 
  454250    299.74342    99.091129    460546.62    -145303.8    26356.713     25039.07    560331.69   -145335.39 
  454500    299.68053   -18.798884    460146.51   -145297.93    26351.183    24851.286    560512.02    -145329.5 
  454750    300.87024    33.508744    459168.64   -145037.24    26455.796    24749.188    560859.94   -145072.75 
  455000     302.1997   -134.12704     460839.3   -145223.53    26572.696    24540.147    560878.56   -145254.72 
  455250    300.49053   -21.816215    459409.77   -145253.95    26422.407    24783.335    560610.51   -145284.89 
  455500    300.16869    48.262908     459477.1   -144973.17    26394.108    24762.239    560923.83   -145008.38 
  455750    298.70492     26.89745    457919.63    -145255.4    26265.397    24681.832    560722.95   -145284.07 
  456000    300.02835    -47.36509    459172.62   -145127.37    26381.768    24586.417    560956.18   -145160.75 
  456250    299.83518   -234.70644    461170.82   -145353.45    26364.782    24470.686    560837.93   -145381.55 
  456500    299.80099   -74.739962    461489.32   -145091.73    26361.776    24673.398    560896.66   -145125.78 
  456750    299.40199    98.558069    460167.09    -144857.6    26326.691    24918.066    560861.96   -144887.33 
  457000    301.37934    11.303614    460337.57   -145064.33    26500.562    24704.407    560898.19   -145098.35 
  457250    300.25125   -138.96827    460391.84   -145054.35    26401.368     24371.84    561233.57    -145080.9 
  457500    300.40267    23.310146    459751.52   -145286.37    26414.682    24873.924    560494.49   -145315.02 
  457750    299.62788    15.419253    459995.58   -145089.17    26346.554    24765.482    560795.13   -145117.19 
  458000    299.09257   -7.3061403    459662.65   -145437.96    26299.483    24838.077    560391.04   -145461.91 
  458250    302.44813   -71.090177    459908.24   -145324.69    26594.541    24648.842     560698.9    -145350.1 
  458500    301.01058   -32.201263    460948.43   -145168.96    26468.136    24776.989    560700.41   -145197.67 
  458750    300.79913     36.84117    458598.01    -145509.7    26449.542    24836.967    560326.75   -145533.95 
  459000    300.58086    5.2522395    460435.69   -145092.06    26430.351    24702.614    560864.35    -145117.6 
  459250    297.40859    34.351211    459709.09   -145172.32    26151.409    24867.865    560614.47   -145200.36 
  459500    299.36598    84.982892    459297.44   -145351.18    26323.525    24990.002    560313.27   -145383.81 
  459750    298.74916      280.466    456778.41    -145251.5    26269.287    25172.424     560238.9   -145283.37 
  460000     302.4584    51.866194    459071.36   -145570.88    26595.444    24931.195    560162.79   -145599.83 
  460250    304.27854   -65.370875    460513.59   -145325.48    26755.491    24711.127    560616.83   -145352.21 
  460500    301.37347   -135.48799    460321.21   -145286.64    26500.045    24539.066    560824.43   -145319.19 
  460750    298.88934    102.61049     458742.1   -145288.48    26281.613    24910.631    560455.81   -145314.65 
  461000    302.96621    11.210915    460557.18   -145301.53    26640.096    24848.485    560513.68   -145334.85 
  461250     299.4162   -57.460225    460726.33   -145130.18    26327.941    24640.583     560886.9   -145160.34 
  461500    299.12267    24.595633    458970.04   -145358.96     26302.13    24876.874    560411.32   -145396.29 
  461750    301.79772    4.9229044    458877.98   -145098.91     26537.35    24691.966    560851.67   -145133.25 
  462000    299.18394   -53.176892    460244.23   -144798.85    26307.517     24591.22    561274.63   -144829.49 
  462250    300.97667    304.51357    458499.44   -145308.38    26465.154    25371.374    559989.16   -145348.85 
  462500    300.77216   -81.624427    460631.64   -145626.29    26447.171    24829.287    560217.76   -145657.97 
  462750    300.78139    6.7325369     460601.2   -145331.06    26447.983    24855.752     560462.5    -145363.2 
  463000    299.35113    239.35629    459989.11   -145046.23    26322.219    25159.132    560442.11    -145076.1 
  463250    301.27262   -80.456536    461211.44   -144851.86    26491.177    24559.803    561243.56   -144877.81 
  463500    299.87277    30.677865    459705.15   -145195.33    26368.087    24806.811    560649.48   -145222.48 
  463750    300.09703   -113.76494    459471.52   -145079.49    26387.807     24385.23    561197.81   -145105.73 
  464000    298.69212   -104.05289    458878.19   -145262.52    26264.272    24533.038    560865.27   -145294.17 
  464250    301.76433   -3.5226358    459357.32   -145113.53    26534.414    24628.136    560918.86   -145137.96 
  464500    300.93449    11.403466    460218.72   -145188.73    26461.445    24783.206    560684.02   -145213.98 
  464750    298.25096    -1.044737    459985.87   -145238.13     26225.48    24911.257    560497.96   -145269.27 
  465000    300.63391    16.603293     460586.2   -145165.31    26435.015    24784.333    560735.34   -145188.15 
  465250     299.4744    44.077837    461017.55   -145281.18    26333.058    24980.556    560389.06   -145310.93 
  465500    301.23286    121.73293    459832.96   -145189.56    26487.682    24969.276    560506.22   -145215.49 
  465750    299.73837    74.325245    458776.48   -145343.65    26356.269      24852.3    560475.78   -145374.06 
  466000    301.04036    99.636136    459272.06    -145691.9    26470.754    25096.853    559879.25   -145717.51 
  466250    298.90033    59.851149    460012.86   -145415.71     26282.58    25045.863    560204.37    -145450.4 
  466500    298.29241    15.480545    460046.05   -144977.66    26229.124    24728.337     560960.3   -145007.92 
  466750    299.85102    53.948305    458912.21   -145268.67    26366.175    24799.415    560584.48   -145300.76 
  467000    297.95883    78.706915    458496.39   -145435.75    26199.792    24981.792    560244.65   -145468.42 
  467250    300.71248    36.045271    459524.91   -145156.78    26441.924    24815.254    560694.46   -145186.46 
  467500    301.30744   -25.333771    460829.56   -145438.66    26494.239    24886.914    560345.28   -145459.44 
  467750    300.14278    154.40986    457252.89   -145533.12     26391.83    25102.952     560025.7   -145561.78 
  468000     302.0191   -38.085835    458418.41   -145208.45    26556.816    24608.325    560838.79   -145235.34 
  468250    298.76161   -200.05999    459871.16   -145401.12    26270.382    24460.912    560788.36   -145433.96 
  468500    299.71809    27.894637    459324.05    -145435.5    26354.486    24851.636    560352.18   -145470.44 
  468750    302.41359   -19.700192    458973.06   -145569.22    26591.504    24816.958    560263.99    -145602.3 
  469000     301.3126    94.129803    458843.84   -145458.82    26494.693    25011.003    560183.76    -145493.8 
  469250    300.80849    17.901615    459730.78   -145335.93    26450.366    24794.393    560546.14   -145361.13 
  469500    298.08292   -76.152696    459000.45   -145769.55    26210.704    24815.563    560084.59   -145799.97 
  469750    302.56084    111.92873    458489.79   -145473.93    26604.452    24992.183    560201.68   -145503.23 
  470000    301.59091   -63.000523    460843.15    -145306.8    26519.165    24744.204    560596.06    -145340.3 
  470250    297.92436    -11.36761    460057.16   -145246.67    26196.762    24816.885    560590.44   -145280.08 
  470500    295.58167   -119.35048    458795.66   -145744.46    25990.767    24711.576    560196.33   -145772.82 
  470750     300.2012   -186.89113    461130.28   -145283.58    26396.966    24518.711    560845.02   -145315.92 
  471000    299.49823   -173.57857    460557.35   -145433.92    26335.154    24574.857    560652.88   -145468.68 
  471250    299.23958   -63.607288    458089.31   -145426.01     26312.41    24675.517    560576.49   -145451.23 
  471500    297.61456    61.194401    458814.57    -145023.6    26169.521    24783.633    560833.34   -145058.12 
  471750    299.59003     26.36015    460512.92   -145319.48    26343.225    24988.257    560336.26   -145350.92 
  472000    300.47255    98.978577    460328.95   -145119.33    26420.826     24979.13     560560.9   -145156.66 
  472250    298.84548    112.72931       460405   -145099.47    26277.757     24961.86    560591.39   -145130.15 
  472500    299.83529    146.45918    460399.39   -145243.91    26364.792    25168.958    560230.95   -145277.61 
  472750    302.00274    246.32749    457978.99   -145360.68    26555.378    25198.487    560115.36   -145395.98 
  473000     300.6817   -31.882653    458939.68   -145570.39    26439.218    24749.509     560335.2   -145602.15 
  473250    301.73607   -184.69738    460950.25   -145123.97    26531.929    24438.857    561110.81   -145150.28 
  473500    300.88991   -4.1218377    459926.78   -145540.71    26457.525    24908.977    560203.89   -145581.84 
  473750    298.57933    117.25558    458688.61   -145340.36    26254.354     25023.21    560292.44   -145373.11 
  474000    299.41256    -142.4964    459056.28   -145676.99    26327.621    24650.243    560343.83   -145702.88 
  474250    298.02766    46.433061    458538.16   -145186.48    26205.845    24794.969     560682.9   -145217.92 
  474500    298.88331   -32.011713    459773.79   -145453.28    26281.083    24822.359     560380.7   -145485.84 
  474750    300.64451   -64.341527    461264.67   -145283.74    26435.947    24793.575    560589.38   -145310.64 
  475000    299.55072   -33.293726    461074.03   -145095.39    26339.769    24718.262    560849.27   -145120.84 
  475250    298.63207   -50.842119    458640.27    -145365.3    26258.991    24616.342    560678.17   -145394.53 
  475500    301.78217    36.404855    458333.83   -145408.08    26535.983    24849.314    560396.63   -145439.04 
  475750    301.50756   -122.80319       459092   -145515.83    26511.836    24566.836    560597.09   -145542.26 
  476000    303.52924    71.555475    457340.03   -145566.51    26689.604    24890.835    560200.59   -145601.86 
  476250    299.94648    63.890692     458458.7   -145190.93    26374.569    24863.398    560616.15   -145217.49 
  476500    300.70549   -80.773094    458305.34   -145392.48    26441.309    24625.562    560632.69   -145424.85 
  476750    298.26214   -45.002024    460624.87   -144842.87    26226.463    24579.465    561242.73   -144873.29 
  477000     300.7105   0.95724479    460360.92   -145043.26    26441.749    24737.262    560880.78   -145073.97 
  477250    301.90875    166.79823    459294.39   -145066.21    26547.113    24973.803    560622.41   -145101.48 
  477500     297.8582   -63.219605    460600.26   -145231.45    26190.945    24697.375    560742.37   -145257.03 
  477750    300.97075   -132.71953    460070.79   -145254.96    26464.634    24568.121    560833.95   -145282.35 
  478000    299.20088    -90.93555    460549.11   -145041.63    26309.008    24572.378    561039.55   -145068.76 
  478250    302.04446    74.235188    460096.56   -145121.02    26559.046    24876.107    560657.76   -145147.21 
  478500    302.15671   -175.93474    461107.92   -145060.48    26568.916    24413.309    561174.55   -145091.11 
  478750    298.20046    14.362828    460357.89   -145348.82    26221.039    24880.231    560436.98   -145369.39 
  479000    298.48045   -97.612785    459472.34   -145232.69     26245.66    24605.197    560823.92    -145261.6 
  479250    301.54086    202.06989    458768.51    -145122.3    26514.763    25061.647    560493.65   -145146.99 
  479500    303.68194   -48.324724    461290.06   -144927.93    26703.031    24601.968    561128.83   -144955.15 
  479750    299.11547    13.534305    459665.77   -145432.92    26301.497    24893.007    560344.82   -145458.73 
  480000    302.27343   -85.192135    460782.16   -145157.36    26579.179    24568.188    560943.28   -145186.27 
  480250    301.02388    50.206464    461375.62   -145276.65    26469.305    24965.484    560433.24   -145294.74 
  480500      299.271   -28.505249    461391.85   -145265.29    26315.173    24786.218    560617.31   -145289.14 
  480750      300.928   -36.510696    460880.31   -145203.28    26460.875    24748.411    560699.16   -145231.18 
  481000    302.48613   -36.158763       460203   -145303.77    26597.882    24733.096    560618.45   -145330.42 
  481250    302.74426   -95.558751    461021.56   -145351.19     26620.58    24666.194    560620.27    -145384.4 
  481500    297.10534    231.06685    458339.54   -145410.88    26124.745    25266.537    559967.31   -145442.03 
  481750    299.90167   -102.40328    458878.63   -145354.81    26370.628    24528.243    560790.98   -145385.14 
  482000    298.84953    20.504487    458414.96   -145180.02    26278.113    24697.414    560780.67   -145209.47 
  482250    297.88892    151.01876    458725.13   -145412.97    26193.646    25136.661    560104.64    -145446.4 
  482500    298.32614    55.570895    459511.22    -145341.8     26232.09    24989.503    560350.09   -145373.81 
  482750    300.56856   -32.581597    459505.41   -145265.45    26429.268    24679.867    560709.82      -145298 
  483000    299.50151   -53.789411    460508.15   -145186.15    26335.442    24745.321    560715.05   -145216.67 
  483250    299.34126    108.37421    458666.12   -145514.59    26321.351    25039.503    560101.31   -145549.03 
  483500    299.78262    -55.40795    459810.66   -145500.32     26360.16    24818.436    560368.73   -145525.27 
  483750    298.85045   -35.696292    461166.39   -145286.15    26278.193    24887.089    560487.14   -145309.39 
  484000    302.36034    18.078309    459798.97   -145235.81    26586.822    24790.646    560642.95   -145267.49 
  484250    299.30848   -171.68133    460948.08   -145275.53    26318.469    24480.433    560913.91   -145305.93 
  484500    300.06791    16.196393    459717.76   -145338.59    26385.246    24876.267    560432.23   -145365.12 
  484750    298.04517   -75.153972    460257.03   -145037.21    26207.385    24606.282    561005.65   -145065.71 
  485000    298.96619    19.608438    461298.31   -145210.63    26288.371    24892.508    560561.26   -145240.67 
  485250    299.08997   -121.19583    460190.99   -145301.95    26299.255    24590.834    560789.11   -145323.25 
  485500    299.07038   -108.93047    458109.62   -145493.79    26297.532    24488.691    560696.03   -145520.15 
  485750    299.39703    15.477846    458567.17   -145605.06    26326.255    24893.255    560159.08   -145628.72 
  486000    300.80293    93.160014    458833.75   -145218.56    26449.877    24905.805       560546   -145248.37 
  486250    302.37982    -97.14966    458724.03   -145478.87    26588.535    24599.968    560578.03   -145506.59 
  486500    301.30657   -82.538807    458599.04   -145556.82    26494.163    24676.477    560446.19   -145582.73 
  486750    299.62843    34.020434    459031.11   -145258.64    26346.602    24949.079    560437.99   -145285.28 
  487000    304.05861    108.85377    458211.07   -145500.63    26736.152     25050.98    560099.21   -145526.38 
  487250    303.80235    -20.45376    459939.93   -145702.18    26713.619    24899.441    560069.45   -145727.38 
  487500    299.96535     104.2704    458378.64   -145507.64    26376.228     25040.61    560131.82   -145536.31 
  487750     297.6606   -106.26251    460254.22    -145109.3    26173.569    24603.727    560930.23   -145138.07 
  488000    301.43396    -98.28248    458934.11   -145283.33    26505.364    24561.141     560832.3   -145306.45 
  488250    297.56884   -7.4173198    460113.48   -145165.22      26165.5    24729.381    560779.35   -145194.19 
  488500    296.08694   -69.962627    461367.06    -145272.3    26035.195    24768.263    560625.06   -145294.73 
  488750    299.47343    83.678749    459533.77   -145317.62    26332.973    24971.653    560398.08   -145339.96 
  489000    300.78549   -149.65688    460089.08   -145338.07    26448.344    24515.249    560831.86    -145362.4 
  489250    299.01046   -60.995245    461258.53    -145216.1    26292.264     24740.55    560713.41   -145238.58 
  489500    302.51967    168.19282    460470.43   -145104.78    26600.832    25097.385    560451.02   -145131.54 
  489750    298.83556      195.642    459952.88   -145326.12    26276.884    25206.326    560124.59   -145350.36 
  490000    299.67905    38.885319    459363.39   -145172.21    26351.054    24828.266    560677.84   -145197.78 
  490250    300.84228    27.684784    458384.63   -145380.73    26453.337    24780.675    560498.61   -145409.91 
  490500    297.65337   -127.59658    459556.86   -145037.35    26172.933    24518.931    561096.22   -145062.91 
  490750    297.79318   -33.082255    459352.36   -145710.76    26185.227    24919.957    560039.48   -145731.64 
  491000    302.40883    175.45636    459462.47   -145177.99    26591.085     25040.58    560458.38   -145205.26 
  491250     298.7203    181.75564    457867.54   -145527.52     26266.75    25133.355    560001.49   -145560.66 
  491500     300.7469    26.549001    459567.81   -145833.21    26444.951    25080.547    559771.55   -145857.88 
  491750    296.05312   -131.03568    462147.15   -145326.84    26032.222    24691.118    560626.69    -145349.8 
  492000    296.53564    67.637035    460161.83   -145355.98     26074.65    24984.716    560317.49   -145387.77 
  492250    299.33137   -24.950028    459441.45   -145418.49    26320.482     24795.07    560443.17   -145447.12 
  492500    300.45755   -42.893318    461161.55   -145445.34    26419.508    24839.315    560383.55   -145471.57 
  492750    299.53634    84.159192    460150.24   -145738.15    26338.505    25165.315    559765.32   -145762.96 
  493000    298.96427    172.63369    459434.73   -145228.31    26288.202    25118.689    560306.19    -145252.4 
  493250    302.40787   -86.574279     459611.4   -145692.15    26591.001    24742.307    560228.45    -145716.1 
  493500     301.4503    60.930644    461009.17   -145374.22    26506.801     25107.35    560215.14   -145395.94 
  493750    301.37458    155.66222    460370.44   -145261.53    26500.142    25162.914    560246.94   -145282.06 
  494000     300.7124   -38.289761     461608.9   -145251.61    26441.916    24776.046     560629.3   -145275.12 
  494250    302.80692    13.615691    459381.91   -145317.75     26626.09    24781.135    560563.98   -145340.49 
  494500    300.51606    32.181935    460076.05   -145075.45    26424.653    24752.648    560820.86   -145103.76 
  494750    300.62675   -79.003941    459990.41   -145382.13    26434.385    24717.191    560567.84   -145401.35 
  495000    301.71993   -65.328206    459417.87    -145156.5     26530.51    24557.053    560933.86   -145181.86 
  495250    299.99886    40.145578    459722.14   -145346.98    26379.175    24862.059    560471.96   -145365.49 
  495500     300.5338     146.2761    458575.07   -145421.94    26426.212    25022.536     560230.2   -145445.35 
  495750    301.10763    90.420057     459632.5   -145569.17     26476.67    25075.223    560019.68   -145590.34 
  496000    298.46912   -64.504606    461405.48   -145533.68    26244.663    24918.331    560214.26   -145563.63 
  496250    297.28737    164.90747    460356.11   -145653.66    26140.751    25355.458    559667.38   -145677.29 
  496500    302.17018   -10.801331    459638.45   -145598.94      26570.1    24838.986    560230.32   -145627.58 
  496750    301.09518   -12.685273    460288.69   -145350.96    26475.575    24826.218    560482.45   -145375.63 
  497000    304.22442    142.29185    458130.14   -145520.98    26750.731    25065.903    560064.42   -145547.51 
  497250    299.22983    125.29949    459210.91      -145293    26311.553    24996.318    560370.99   -145323.48 
  497500    298.69743    -79.15118    459762.13   -145239.84    26264.739    24618.403    560790.18   -145270.91 
  497750    300.58999    18.754148    460161.51   -145354.23    26431.153    24823.035    560485.32   -145384.04 
  498000    297.91818   -295.06085    462758.45   -144929.41    26196.219    24324.458    561399.45   -144960.86 
  498250    301.17892   -23.729641     460237.3   -145538.64    26482.938    24887.984    560226.61      -145566 
  498500    300.13079   -13.386461    461324.14   -145432.55    26390.775     24988.71    560237.52   -145466.66 
  498750    301.05332      154.497    460331.95   -145348.36    26471.894    25180.915    560153.01   -145374.04 
  499000    300.37338    158.68398    460056.45   -145524.87    26412.106    25219.457    559931.73   -145546.23 
  499250    302.41913    215.25389    459838.39    -145361.6    26591.991    25258.554    560038.83   -145386.06 
  499500    299.03355   -86.956309    459248.13    -145373.1    26294.294    24712.097    560592.01   -145396.21 
  499750    300.56712    25.128475     457683.2   -145669.54    26429.142    24879.666    560123.54   -145695.55 
  500000    301.04528   -8.4239805    459659.56    -145002.4    26471.187    24665.263    560991.93    -145027.6 
  500250    302.82493    25.633065    459948.12      -145219    26627.673    24872.959    560569.74    -145240.1 
  500500    300.51076   -66.519214    460916.68   -145178.14    26424.186    24720.001    560756.78   -145209.59 
  500750    299.95473   -41.598222    460737.88      -145058    26375.294    24670.597     560934.9   -145087.66 
  501000    300.16668    276.57417    458514.25   -145386.37    26393.931    25296.473    559987.41   -145410.38 
  501250    300.11219    -117.5574    461188.37   -145223.74    26389.139     24621.23    560824.65   -145252.97 
  501500    299.52672   -36.095621    461122.94   -145263.04    26337.659    24776.371    560611.89   -145302.68 
  501750    301.39624   -78.299323    460286.53   -145422.16    26502.048    24655.348    560580.58   -145454.66 
  502000    300.60764    25.885379    460679.39   -144973.36    26432.705    24740.965    560945.83   -145000.62 
  502250    298.94269    82.067214    458728.32   -145352.52    26286.305    24914.763    560404.35   -145378.06 
  502500    297.54605    9.5150937    459621.24   -145082.84    26163.497    24812.493    560768.15   -145122.56 
  502750    302.20505    81.128691    459063.79   -145285.24    26573.167     24879.62    560497.33   -145316.19 
  503000     299.6943    67.179843    457408.62   -145662.11    26352.394    24927.007    560073.81    -145695.6 
  503250    301.18118   -71.456856    458609.01   -145254.85    26483.137    24547.914    560859.51   -145292.51 
  503500    299.75649    96.332952    458900.21   -144989.06    26357.863    24786.752     560864.7   -145016.47 
  503750    299.89136    9.1157313    459068.54   -145143.82    26369.722     24685.59    560826.43   -145176.15 
  504000    300.16819    7.4242342    459249.17   -145020.69    26394.064    24662.474    560960.65   -145046.58 
  504250    298.15632   -74.235489    458907.57   -145254.67    26217.158    24614.591    560771.97   -145280.46 
  504500    298.58029    49.421907    459187.23   -145417.53    26254.439    24844.711     560411.3   -145446.09 
  504750      299.597   -32.387888     460663.5   -145176.86    26343.838     24761.99    560718.64   -145200.64 
  505000    300.31138    149.01336    459320.89   -145197.26    26406.655    24909.954    560561.73   -145220.89 
  505250    300.58398    10.825216    461230.76   -145550.69    26430.625    25024.226    560086.89   -145570.72 
  505500     298.0554   -47.335965    462307.87   -145276.37    26208.284     24791.93    560596.12      -145302 
  505750    301.78668    24.519726    459647.17   -145477.77    26536.379    24910.416    560269.68   -145507.63 
  506000    302.30097   -36.300152    460439.07   -145366.47    26581.601    24774.917    560534.66   -145390.22 
  506250    301.77702    108.90535    459255.44   -145213.33     26535.53    24952.063    560489.06   -145246.69 
  506500    299.39693    51.543903    458887.92   -145548.51    26326.246    24952.121    560170.29   -145576.17 
  506750    298.88202   -125.29637     460859.2   -145365.79    26280.969    24579.476    560723.55   -145399.75 
  507000    300.15583    9.7370893    458714.14   -145301.97    26392.977    24758.741    560592.89   -145329.63 
  507250    300.43291   -93.802812    459682.16   -145285.11    26417.341    24520.621    560839.51   -145322.04 
  507500    299.60809    83.277243    458639.27   -145235.05    26344.814    24897.996    560528.54   -145268.53 
  507750    301.83783   -14.833996     459928.9   -144899.16    26540.876    24612.221    561137.96   -144934.95 
  508000    299.54968      82.0987    458606.11   -145176.12    26339.677     24836.93    560640.93   -145210.24 
  508250    301.12894    56.561628     458094.7   -145221.75    26478.544    24786.705    560662.36   -145259.12 
  508500    301.41931   -75.254743    461018.41   -145411.17    26504.076    24640.905    560630.27   -145438.31 
  508750    297.87611     28.88018    460155.99   -145553.91    26192.519    24965.832    560145.57   -145584.65 
  509000    300.62034   -121.04479    460362.61   -145223.19    26433.822    24570.317     560860.4   -145254.34 
  509250    301.36181     161.3706    458934.76   -145487.94     26499.02    25158.177    560025.37   -145517.37 
  509500    298.61912   -73.136896    460478.32   -145372.19    26257.853    24745.517    560531.33   -145403.48 
  509750    301.69079   -171.98929    460414.55   -145386.31    26527.948    24469.881     560804.7   -145417.27 
  510000    297.86681     63.50051    457421.07   -145597.33    26191.701    24885.146    560186.75   -145630.55 
  510250    303.34674   -20.622079    459618.82    -145703.1    26673.557    24907.828    560044.66   -145735.77 
  510500    299.19463    17.898745    459234.72   -145213.89    26308.458    24755.305    560679.18   -145242.46 
  510750    300.51049    88.540998    458280.65   -145695.95    26424.162    25001.811    559970.49   -145727.88 
  511000    299.35167   -69.547044    460454.67   -145140.58    26322.267    24690.345    560821.85   -145175.62 
  511250    299.13329    -18.85655    460021.04   -145139.33    26303.064    24793.656     560710.2   -145170.51 
  511500    301.45805    -84.23313    460841.24   -145378.04    26507.482    24743.342    560531.44   -145413.09 
  511750    300.86346    65.451612    459083.17    -145530.1      26455.2    24966.364    560137.73   -145568.54 
  512000    298.72443    -48.34176    460503.44   -145393.87    26267.113    24787.675    560483.44    -145423.6 
  512250    301.13836    4.1485812    460160.62   -145267.93    26479.372    24787.505    560603.67   -145302.33 
  512500    300.38398   -17.027516    458546.15   -145452.82    26413.039    24750.195    560456.29   -145489.24 
  512750    298.31559   -153.19669    459986.05   -145384.94    26231.163    24499.194    560788.39   -145408.81 
  513000    299.18164    83.391695    458880.95   -145502.75    26307.316    25034.228    560125.92   -145536.88 
  513250    298.66061   -20.295733    459434.64   -145392.13    26261.501    24821.274    560442.91   -145429.04 
  513500    299.09196   -38.490822    459201.02    -145714.7     26299.43    24855.446     560082.6   -145745.68 
  513750    300.55654    161.57479    458775.88   -145238.26    26428.212    25042.318    560384.93   -145272.66 
  514000    301.15311   -121.11521    460795.18   -145183.08    26480.669    24613.396    560869.98   -145215.34 
  514250    298.81242    103.57834    458951.24   -145479.11     26274.85    25005.236    560181.39   -145510.37 
  514500    298.75007    71.252258    459503.85   -145414.09    26269.367    25027.432     560203.6    -145446.3 
  514750    300.55315   -9.5790416    460870.42   -145410.43    26427.914    24984.018    560254.77    -145443.6 
  515000    300.58473    254.49171    458378.54   -145727.43     26430.69    25414.404    559516.17   -145763.14 
  515250    299.42558   -84.076366     459998.3   -145415.33    26328.766     24726.01    560515.14   -145452.46 
  515500    297.18858    198.13949    460138.73   -145547.98    26132.064    25328.548    559790.27   -145580.33 
  515750    300.73811    154.29001     460920.9   -145159.34    26444.177     25179.33    560319.15   -145190.44 
  516000    300.62707    40.018461     458563.6    -145672.1    26434.414    24961.579    560009.49    -145705.8 
  516250      298.653   -19.953567     460473.6   -145383.05    26260.832    24930.958    560359.81   -145409.39 
  516500    301.40775    36.384104    459454.33   -145440.19     26503.06    24907.703    560305.18   -145473.25 
  516750    300.87037   -18.015483     459736.1   -145186.11    26455.807     24748.77    560726.46   -145215.29 
  517000    299.88556   -31.794623     458333.1   -145502.78    26369.212    24746.831    560402.62   -145536.92 
  517250    298.52753   -71.469584    459120.77   -145350.35    26249.799    24626.563    560681.96   -145380.03 
  517500    299.97084   -211.21074    460048.93   -145567.96    26376.711    24519.655    560565.71   -145606.77 
  517750     300.1973    61.073162    457991.15   -145751.08    26396.624    24942.938     559985.7   -145780.01 
  518000     299.5471   -25.845324    459908.52   -145173.38    26339.451    24678.724    560782.59   -145208.87 
  518250     300.6299   -105.95657    459678.99   -145517.61    26434.663    24670.206    560486.44   -145546.65 
  518500    299.74087   -134.50739    460632.34   -145504.26    26356.489    24668.829    560494.19    -145530.9 
  518750    300.21868   -23.526363    460744.33   -145600.78    26398.503     24950.11    560113.47   -145622.73 
  519000     300.6428     -36.8003     459609.1   -145582.71    26435.797    24840.928    560248.91   -145607.31 
  519250    300.26406   -28.620374    458934.95   -145487.29    26402.494    24765.972     560415.3   -145508.94 
  519500    299.21378    49.484539    459952.85    -145155.2    26310.141    24848.013    560673.08   -145183.23 
  519750    299.94586    28.196341    461208.96   -145496.94    26374.514    25064.037    560115.65   -145524.87 
  520000     300.2653    33.227523    460334.68   -145561.22    26402.603    24984.746    560131.04   -145588.63 
  520250    302.98208   -236.40841    460758.09   -145579.28    26641.492    24493.597    560590.71   -145602.51 
  520500    299.33236    -62.84676    458690.48   -145622.88    26320.569    24765.168     560292.4   -145650.11 
  520750    299.53118   -54.636584    459587.87   -145754.32    26338.051    24858.515    560057.64   -145778.94 
  521000    300.39897   -4.0927054    459456.72   -145485.49    26414.356     24873.91    560305.98      -145516 
  521250    299.49303    219.34219    457509.85   -145739.21    26334.696    25312.341    559619.07   -145766.99 
  521500    302.99197    -151.4063    460018.81   -145217.52    26642.361      24475.6    560966.49   -145244.43 
  521750    300.91057    53.829643    459847.92   -145565.72    26459.342    24999.877     560068.1   -145601.66 
  522000    298.75926    -47.72872    458979.37    -145417.1    26270.175    24713.895    560525.47   -145447.74 
  522250      304.434    112.59338    458916.65   -145542.42     26769.16     24993.28       560122   -145569.76 
  522500    300.38853    15.734987    460490.71   -145219.11    26413.439    24837.249    560587.17   -145246.49 
  522750     299.9839   -60.005592    461072.41   -145310.14    26377.859    24751.286    560592.66   -145343.13 
  523000    300.76964    62.232615    459319.95   -145526.52     26446.95    24944.786    560201.84   -145555.09 
  523250    300.70527    19.301615    459895.52   -145327.29     26441.29    24851.777    560509.99   -145352.93 
  523500    300.10813   -53.963324    460565.45   -145446.34    26388.783    24811.698    560403.55   -145471.38 
  523750     299.6993   -90.764585    460949.85   -145372.63    26352.833    24743.198    560552.04   -145399.57 
  524000    302.06817    78.723946    459792.32   -145481.26    26561.131    25032.938    560157.32   -145510.53 
  524250    300.92879    45.167887    460872.54   -145322.19    26460.944    24964.191    560373.84    -145353.3 
  524500    298.56385    115.73657    460665.55   -145371.41    26252.993    25121.352    560171.28   -145398.99 
  524750     302.0544    109.89856    460930.03    -145422.6     26559.92    25144.227    560085.22   -145454.45 
  525000    301.93089   -106.28274    462074.83   -145084.82    26549.059    24644.462    560922.66   -145117.41 
  525250    301.25356    25.709643    459305.17   -145513.93    26489.501    24860.642    560269.84   -145547.71 
  525500    302.16645   -130.30023    459441.45   -145328.17    26569.772    24502.144     560820.2   -145365.21 
  525750    300.01668   -62.683841    460079.13   -145479.51    26380.741      24748.1    560436.47   -145515.41 
  526000    299.31106    101.00217    458659.82   -145604.32    26318.695    25086.233     559969.6   -145636.36 
  526250    299.80166   -113.28973    459759.12   -145595.59    26361.834    24710.826    560341.74   -145629.64 
  526500    299.32661   -86.361888    460178.43   -145737.59    26320.063    24861.217    560052.58   -145771.27 
  526750    299.93701    118.80896    459317.39   -145647.83    26373.736    25163.593    559839.73   -145675.42 
  527000    300.56287   -120.31711    460785.97   -145557.03    26428.768    24729.758    560373.23   -145588.04 
  527250    300.59754   -82.375158    460169.61   -145453.73    26431.817    24753.963    560446.38   -145488.17 
  527500    300.96957    272.92491    458405.16   -145718.73     26464.53     25393.63     559531.7   -145754.31 
  527750    298.25854    1.8131927    459865.47   -145342.24    26226.146    24841.969    560481.92   -145369.39 
  528000    300.64507    54.421066    459167.13    -145645.6    26435.996    24950.987    560063.03   -145677.46 
  528250    302.41689   -1.3895316    459790.55   -145287.91    26591.794    24776.924    560591.37   -145323.35 
  528500    300.36166   -51.727118    459671.16   -145535.73    26411.076    24758.014    560383.78   -145560.67 
  528750    300.56017   -128.34141    458282.57   -145794.17    26428.531    24709.521    560173.52   -145828.52 
  529000    301.87664    21.198313    458207.66   -145697.44    26544.289    24883.705    560075.42   -145731.15 
  529250    299.54723    275.43925    457657.76   -145568.72    26339.463     25330.62     559770.7   -145597.24 
  529500    300.84013    -146.3141    459670.05   -145341.92    26453.148    24511.524    560834.27   -145367.17 
  529750    301.84672    76.805009    458241.35   -145855.94    26541.658    25071.952    559735.62   -145885.68 
  530000    301.75287   -24.810372    458482.31   -145534.31    26533.406    24740.813    560393.84    -145563.6 
  530250     299.4142   -68.548843    457506.05   -145731.06    26327.764    24712.315    560221.52    -145757.5 
  530500    300.13171   -182.08402    459864.38    -145609.7    26390.856    24593.874    560460.48   -145636.74 
  530750    297.07062    56.471719    458227.66   -145524.88    26121.691    24910.622    560234.42   -145550.44 
  531000    301.11495   -35.512558    458803.19   -145459.52    26477.313     24766.64    560443.54   -145488.08 
  531250    299.94157   -2.0287523    458773.12   -145559.62    26374.137    24823.802    560285.24   -145584.18 
  531500    299.79942   -33.797932    460467.11      -145670    26361.638    24919.378    560078.26   -145692.82 
  531750    300.40068   -46.165894    461097.58   -145218.72    26414.507    24755.049    560696.54   -145241.06 
  532000    299.00445    135.53369    459529.46   -145493.01    26291.735    25210.539    559948.24   -145519.98 
  532250     299.7408   -78.324374    461054.57    -145395.3    26356.483    24739.718    560516.21   -145420.92 
  532500    300.47402    114.61222    459262.43   -145611.53    26420.956    25107.599    559944.02    -145635.3 
  532750    302.60436   -16.139714    460458.35    -145336.8    26608.279    24814.492    560528.06   -145362.81 
  533000    300.82116   -60.441631    460791.63   -145246.85     26451.48    24707.407    560716.31   -145269.33 
  533250    301.38677    154.20013    459392.32   -145410.72    26501.215    25098.062     560151.4   -145442.22 
  533500    299.58842    13.133622    459838.58    -145413.4    26343.084    24800.655    560461.15   -145435.75 
  533750    300.44715    35.061194    459686.22   -145537.63    26418.593    25012.743    560101.19   -145561.69 
  534000    299.14991   -74.222383    460511.58   -145530.42    26304.526    24802.908    560347.45   -145552.89 
  534250    296.61549   -105.18278    461233.98    -145643.4    26081.672    24861.538    560168.76   -145667.64 
  534500    300.65595   -19.942841    460896.45    -145426.8    26436.953    24844.104    560401.43   -145451.44 
  534750    301.97666    125.64529    459082.58   -145414.12    26553.084    25065.463    560181.55   -145435.73 
  535000    302.10534    103.49147     458049.3   -145794.58    26564.399    25014.659    559874.07    -145818.4 
  535250    301.20898   -85.767525     459344.7   -145458.17    26485.581    24682.885    560529.13   -145481.57 
  535500     300.0878   -8.3243938    459959.52   -145585.87    26386.995    24916.683     560150.8   -145611.12 
  535750    295.92116    13.158499    459708.83   -145806.74    26020.618    25037.762    559814.55   -145828.03 
  536000    298.38854   -142.50849    460964.85   -145564.95    26237.577    24704.401    560383.01   -145583.49 
  536250    299.00398    138.88714    459386.59   -145348.68    26291.693    25099.244    560215.22   -145370.83 
  536500    300.00882    207.86901    457618.98   -145362.14     26380.05     25121.74    560188.21   -145384.01 
  536750    300.08102    28.480262    460059.58   -145507.61    26386.399    24976.839    560176.93   -145526.78 
  537000    300.26909     131.0552    459875.27   -145561.99    26402.936     25153.54     559948.6   -145582.46 
  537250    300.66754   -101.33813    460459.84   -145625.17    26437.972    24712.108    560342.89   -145641.92 
  537500    299.73312   -69.673546    460595.76   -145158.66    26355.808    24625.545    560883.39    -145176.9 
  537750    299.83446    252.12039    458762.98   -145570.53    26364.719    25353.354    559749.18   -145593.16 
  538000    298.09937   -10.520745    459534.97   -145528.94    26212.151    24905.901    560239.39   -145550.48 
  538250    301.81258    35.308637    460696.09   -145417.31    26538.657    24969.703    560281.35   -145440.52 
  538500    298.52874    113.30578    459114.25   -145376.42    26249.906    24989.553     560304.7   -145395.88 
  538750     296.2824    10.259724    458503.13   -145584.63    26052.382    24863.359    560219.34   -145609.44 
  539000    298.66425   -48.998765    458842.62   -145718.59    26261.821    24795.249    560166.86    -145740.8 
  539250     301.4326   -17.479397    461176.29   -145235.65    26505.244    24815.337    560594.69   -145263.08 
  539500    300.25905    91.348971    460401.06   -145867.35    26402.053    25196.116    559600.36   -145890.79 
  539750    301.27057   -115.12854    459954.36   -145611.33    26490.997    24693.161    560342.62   -145633.23 
  540000    298.12223   -106.77594    459474.53   -145765.02    26214.161    24828.656    560070.81   -145789.98 
  540250    300.04161    90.643687    457333.61    -145386.7    26382.934    24885.021    560384.95    -145409.6 
  540500    301.82059    169.13472    458449.79   -145355.61    26539.361    25000.409    560313.68   -145380.96 
  540750     303.4074    -104.3859    461347.85   -145627.61    26678.891     24821.82    560217.04   -145651.46 
  541000    299.84633   -67.021966    459944.49   -145618.84    26365.763    24829.628    560229.16   -145641.42 
  541250    299.06619   -64.335728    459530.74   -145749.52    26297.164    24862.738     560056.1   -145775.01 
  541500    299.55344    23.864376    460809.39   -145443.27    26340.009    24945.564    560291.27   -145463.03 
  541750    300.92394   -24.541612    460734.53   -145194.54    26460.517    24752.891    560709.94   -145218.18 
  542000    300.23678   -9.6232776    460449.49   -145088.34    26400.095    24735.174    560841.77   -145111.47 
  542250    301.17186    65.015502    459899.78   -145727.84    26482.317    25088.027     559862.2   -145750.22 
  542500    300.04599   -171.65023    459512.81   -145679.28    26383.318    24709.453    560277.68   -145701.63 
  542750    300.87898   -9.7925279    457267.31   -146155.81    26456.564     24961.78    559565.96    -146175.9 
  543000    301.26533   -14.922267    459313.95   -145494.93    26490.536    24767.028    560391.63   -145524.11 
  543250    302.85776    244.75981    458859.34   -145396.33     26630.56    25238.609    560014.03   -145417.36 
  543500    302.37792   -37.844014    459828.07   -145539.32    26588.368    24846.487    560285.72   -145560.76 
  543750    301.28785   -13.726988    460730.75   -145536.54    26492.517    24947.174    560171.78   -145563.24 
  544000    300.52941    101.09607    457378.01   -145799.92    26425.826    25020.481     559863.8   -145820.33 
  544250    300.10239    81.267217    459586.91   -145327.64    26388.278     24932.71     560399.1    -145351.2 
  544500    300.32883     62.28252    458690.86   -145532.05    26408.189    24944.575    560194.09   -145552.53 
  544750    301.19209    30.320989    458834.53   -145483.69    26484.096    24828.132    560350.63   -145509.11 
  545000    300.41718    62.746229    458348.24   -145502.75    26415.958    24858.901    560312.18   -145531.17 
  545250    301.40542    43.779122    459997.63    -145470.9    26502.855    24921.631    560256.09   -145498.63 
  545500    296.87329   -158.26609    460201.31   -145746.49     26104.34    24618.226    560291.77   -145777.18 
  545750    300.32722   -55.482834    459836.04   -145644.37    26408.047    24804.949    560217.98   -145668.83 
  546000    302.23541   -128.92537    460751.45    -145169.1    26575.837    24576.947    560924.97   -145201.15 
  546250    298.34232    5.6750118    460159.95   -145378.91    26233.513    24908.067    560370.72   -145404.93 
  546500    301.30282    50.607658    460848.56    -145025.1    26493.833    24879.066    560738.79   -145055.75 
  546750    297.50667   -43.464841    461846.31   -145392.14    26160.034    24900.233    560376.66   -145420.97 
  547000    299.90391    -157.6366    460816.85   -145627.19    26370.825    24683.619    560354.76   -145653.66 
  547250    295.97027    40.033461    458604.32   -145491.84    26024.937    24933.291    560231.25   -145517.94 
  547500    302.15689   -36.023518    460359.13   -145298.64    26568.932    24703.911    560647.44   -145331.07 
  547750    298.31031   -56.302054    460679.42   -145461.45    26230.699    24813.322    560381.84   -145489.13 
  548000    298.51758   -107.01121    459342.91   -145562.44    26248.924    24672.479    560423.66   -145588.89 
  548250    301.24709     79.66262    458959.33   -145704.02    26488.932    25079.142    559882.83   -145730.33 
  548500    301.66919     156.7687     460242.4   -145405.31    26526.048    25170.979    560080.09   -145434.76 
  548750    301.60943    266.68625    460586.59    -145536.8    26520.793    25501.429    559633.36   -145560.23 
  549000    301.63144   -65.207618    459805.35   -145539.38    26522.728    24821.336    560296.59   -145570.21 
  549250    299.98158    201.33959    458631.74   -145588.98    26377.655    25268.981     559802.4   -145613.39 
  549500    300.01229    27.055399    458928.71   -145585.35    26380.356    24989.393    560086.41   -145609.27 
  549750    300.31427   -25.272691    459359.33   -145592.57    26406.909    24885.382     560161.1   -145621.19 
  550000    301.17385    79.257153    457723.89   -145608.36    26482.492    24977.084    560098.33   -145637.09 
  550005    298.25927    131.12672    457772.84    -145356.5     26226.21    24973.624    560357.03   -145384.07 
Loop time of 45114.2 on 1 procs (1 MPI x 1 OpenMP) for 100000 steps with 44200 atoms

Pair  time (%) = 32752.1 (72.5982)
Bond  time (%) = 1.02405 (0.00226991)
Kspce time (%) = 3578.14 (7.9313)
Neigh time (%) = 5792.28 (12.8392)
Comm  time (%) = 107.549 (0.238393)
Outpt time (%) = 1.70097 (0.00377037)
Other time (%) = 2881.39 (6.38689)

FFT time (% of Kspce) = 814.3 (22.7576)
FFT Gflps 3d (1d only) = 1.51108 2.95536

Nlocal:    44200 ave 44200 max 44200 min
Histogram: 1 0 0 0 0 0 0 0 0 0
Nghost:    70329 ave 70329 max 70329 min
Histogram: 1 0 0 0 0 0 0 0 0 0
Neighs:    1.46849e+07 ave 1.46849e+07 max 1.46849e+07 min
Histogram: 1 0 0 0 0 0 0 0 0 0

Total # of neighbors = 14684943
Ave neighs/atom = 332.239
Ave special neighs/atom = 2.00851
Neighbor list builds = 11330
Dangerous builds = 0
write_restart   confout-5.data
PPPM initialization ...
  G vector (1/distance) = 0.263359
  grid = 90 25 25
  stencil order = 5
  estimated absolute RMS force accuracy = 0.0400171
  estimated relative force accuracy = 0.00012051
  using double precision FFTs
  3d grid and FFT values/proc = 97280 56250
