ITEM: TIMESTEP
450005
ITEM: NUMBER OF ATOMS
44200
ITEM: BOX BOUNDS pp pp pp
14.7879 248.212
2.81139 47.1886
2.81139 47.1886
ITEM: ATOMS id mol type x y z ix iy iz 
1 1 1 123.075 37.8708 44.3207 -1 -1 0 
2 1 2 122.243 38.0619 43.8 -1 -1 0 
3 1 2 123.847 38.3519 43.9046 -1 -1 0 
4 2 1 118.046 42.6255 35.8943 -1 -3 0 
5 2 2 117.36 43.016 35.2811 -1 -3 0 
6 2 2 117.901 42.9718 36.8211 -1 -3 0 
7 3 1 83.9795 37.5253 29.9589 -1 -1 -1 
8 3 2 84.4966 37.9398 29.21 -1 -1 -1 
9 3 2 83.001 37.6615 29.8037 -1 -1 -1 
10 4 1 127.613 25.6456 34.4459 -1 0 1 
11 4 2 127.349 26.2075 33.662 -1 0 1 
12 4 2 126.821 25.5108 35.0413 -1 0 1 
13 5 1 167.342 7.48505 32.0772 -1 0 0 
14 5 2 167.268 8.05113 31.2561 -1 0 0 
15 5 2 166.426 7.2664 32.414 -1 0 0 
16 6 1 144.177 5.83949 37.4639 -1 0 -1 
17 6 2 144.945 5.60242 38.0589 -1 0 -1 
18 6 2 144.524 6.24298 36.6171 -1 0 -1 
19 7 1 119.816 14.3911 22.0623 -1 0 1 
20 7 2 119.12 14.1049 21.4036 -1 0 1 
21 7 2 119.377 14.6218 22.931 -1 0 1 
22 8 1 172.887 28.9239 36.9844 -1 -1 -1 
23 8 2 172.076 29.4369 37.264 -1 -1 -1 
24 8 2 172.836 28.7272 36.0052 -1 -1 -1 
25 9 1 161.661 9.27812 27.862 -1 -1 -1 
26 9 2 161.003 9.81139 27.3302 -1 -1 -1 
27 9 2 161.589 8.31309 27.6099 -1 -1 -1 
28 10 1 138.04 30.3822 28.5238 -1 0 0 
29 10 2 138.963 30.4186 28.9055 -1 0 0 
30 10 2 137.375 30.2929 29.2661 -1 0 0 
31 11 1 185.141 23.1088 19.4039 -1 -1 0 
32 11 2 184.56 22.7957 20.1551 -1 -1 0 
33 11 2 185.969 22.5494 19.3675 -1 -1 0 
34 12 1 128.52 10.4149 41.5597 -1 0 0 
35 12 2 128.889 9.80649 40.8573 -1 0 0 
36 12 2 127.533 10.5135 41.43 -1 0 0 
37 13 1 100.016 11.9722 22.2326 -1 0 1 
38 13 2 100.409 12.6172 22.8881 -1 0 1 
39 13 2 99.7948 12.4527 21.384 -1 0 1 
40 14 1 116.082 46.3898 34.6753 -1 -1 0 
41 14 2 115.316 45.8412 35.0108 -1 -1 0 
42 14 2 115.829 46.8204 33.8089 -1 -1 0 
43 15 1 100.334 38.9099 37.1442 -1 -2 0 
44 15 2 101.05 38.7985 36.4557 -1 -2 0 
45 15 2 99.5069 38.4341 36.8446 -1 -2 0 
46 16 1 132.265 26.3155 35.6554 -1 0 0 
47 16 2 132.658 25.6701 36.3105 -1 0 0 
48 16 2 132.991 26.683 35.0737 -1 0 0 
49 17 1 152.385 23.8521 29.7988 -1 -1 0 
50 17 2 151.624 24.4324 30.0873 -1 -1 0 
51 17 2 153.193 24.0634 30.3499 -1 -1 0 
52 18 1 146.612 20.3895 35.8552 -1 0 -1 
53 18 2 147.01 20.487 36.7674 -1 0 -1 
54 18 2 145.672 20.0582 35.9352 -1 0 -1 
55 19 1 126.698 18.0059 3.84434 -1 0 1 
56 19 2 126.479 17.3287 3.14172 -1 0 1 
57 19 2 125.853 18.3253 4.27357 -1 0 1 
58 20 1 101.611 37.9144 4.81686 -1 -1 2 
59 20 2 102.143 38.1085 5.64149 -1 -1 2 
60 20 2 101.499 38.7551 4.28714 -1 -1 2 
61 21 1 136.319 28.485 30.521 -1 -1 0 
62 21 2 136.284 27.5532 30.1597 -1 -1 0 
63 21 2 137.1 28.5732 31.14 -1 -1 0 
64 22 1 135.759 5.01592 33.3714 -1 0 -1 
65 22 2 136.755 5.1043 33.3628 -1 0 -1 
66 22 2 135.509 4.07636 33.6062 -1 0 -1 
67 23 1 135.434 38.0959 23.8837 -1 -1 1 
68 23 2 135.159 38.4481 24.7785 -1 -1 1 
69 23 2 135.645 37.1214 23.9596 -1 -1 1 
70 24 1 146.139 26.7623 35.8935 -1 -1 -1 
71 24 2 146.366 27.7259 36.0338 -1 -1 -1 
72 24 2 146.055 26.3072 36.78 -1 -1 -1 
73 25 1 102.838 31.3641 24.4327 -1 -1 1 
74 25 2 101.94 31.0298 24.149 -1 -1 1 
75 25 2 103.091 32.1551 23.8754 -1 -1 1 
76 26 1 128.116 9.24344 11.9107 -1 1 1 
77 26 2 128.897 9.83999 11.725 -1 1 1 
78 26 2 127.509 9.23224 11.1162 -1 1 1 
79 27 1 71.3817 12.4063 23.3378 -1 0 1 
80 27 2 70.4741 12.5947 23.7131 -1 0 1 
81 27 2 71.3092 12.2506 22.3526 -1 0 1 
82 28 1 139.309 24.439 40.5626 -1 0 1 
83 28 2 138.632 25.0298 41.0003 -1 0 1 
84 28 2 139.206 23.5044 40.903 -1 0 1 
85 29 1 177.685 12.9298 8.47115 -1 0 -1 
86 29 2 177.897 12.0071 8.14878 -1 0 -1 
87 29 2 176.736 13.1513 8.2479 -1 0 -1 
88 30 1 106.36 8.22971 26.9972 -1 -1 -1 
89 30 2 106.931 7.41214 27.0667 -1 -1 -1 
90 30 2 105.436 8.01935 27.3191 -1 -1 -1 
91 31 1 108.261 30.3828 43.4767 -1 -1 0 
92 31 2 108.021 29.5127 43.0462 -1 -1 0 
93 31 2 109.003 30.815 42.9638 -1 -1 0 
94 32 1 109.86 34.2862 3.33657 -1 0 2 
95 32 2 109.327 33.9072 46.9575 -1 0 1 
96 32 2 110.171 33.5439 3.93035 -1 0 2 
97 33 1 100.31 31.6738 21.6259 -1 0 1 
98 33 2 100.53 31.0604 22.3844 -1 0 1 
99 33 2 101.08 32.2904 21.4618 -1 0 1 
100 34 1 105.608 27.8202 14.1366 -1 0 1 
101 34 2 105.29 28.6389 14.615 -1 0 1 
102 34 2 105.894 27.1334 14.8048 -1 0 1 
103 35 1 119.755 45.4565 21.0432 -1 -1 0 
104 35 2 119.895 46.32 21.5277 -1 -1 0 
105 35 2 120.265 45.4702 20.1832 -1 -1 0 
106 36 1 161.123 29.0472 24.8693 -1 0 0 
107 36 2 161.111 29.4373 25.79 -1 0 0 
108 36 2 160.418 28.3416 24.7971 -1 0 0 
109 37 1 94.967 42.2086 9.75582 -1 -1 1 
110 37 2 94.8967 42.1261 8.76171 -1 -1 1 
111 37 2 94.9254 43.1738 10.0139 -1 -1 1 
112 38 1 176.837 6.76051 42.9502 -1 0 -1 
113 38 2 176.188 6.09571 43.3205 -1 0 -1 
114 38 2 176.38 7.32384 42.2615 -1 0 -1 
115 39 1 152.831 29.8905 42.5229 -1 -2 0 
116 39 2 153.199 30.5434 43.185 -1 -2 0 
117 39 2 152.396 29.1322 43.0087 -1 -2 0 
118 40 1 122.26 14.8908 42.7683 -1 0 1 
119 40 2 122.124 14.0103 42.3142 -1 0 1 
120 40 2 123.196 14.9449 43.1165 -1 0 1 
121 41 1 103.665 35.1305 33.5154 -1 -2 1 
122 41 2 102.679 35.2221 33.3736 -1 -2 1 
123 41 2 104.095 36.0313 33.457 -1 -2 1 
124 42 1 178.239 33.9267 3.5121 -1 -1 0 
125 42 2 178.466 34.7836 3.04928 -1 -1 0 
126 42 2 177.358 33.5913 3.17913 -1 -1 0 
127 43 1 93.7534 23.239 13.5963 -1 -1 -1 
128 43 2 93.8146 23.7604 12.7452 -1 -1 -1 
129 43 2 92.8945 23.457 14.0597 -1 -1 -1 
130 44 1 121.351 23.9388 44.8238 -1 0 -1 
131 44 2 120.472 24.1349 45.258 -1 0 -1 
132 44 2 121.764 24.7925 44.5065 -1 0 -1 
133 45 1 81.8508 34.4758 28.7615 -1 -1 0 
134 45 2 80.8825 34.6459 28.9443 -1 -1 0 
135 45 2 82.2678 35.3005 28.3792 -1 -1 0 
136 46 1 136.531 8.4483 10.4997 -1 0 1 
137 46 2 136.247 7.65828 9.95622 -1 0 1 
138 46 2 135.9 8.5699 11.2657 -1 0 1 
139 47 1 118.989 17.3108 20.4662 -1 0 1 
140 47 2 119.187 17.675 21.3762 -1 0 1 
141 47 2 119.84 17.0074 20.0364 -1 0 1 
142 48 1 114.797 26.2856 29.443 -1 -1 1 
143 48 2 114.697 25.5255 30.0852 -1 -1 1 
144 48 2 114.55 27.1411 29.898 -1 -1 1 
145 49 1 114.733 31.4425 26.9059 -1 -1 0 
146 49 2 114.713 31.7106 27.869 -1 -1 0 
147 49 2 114.976 32.2338 26.3447 -1 -1 0 
148 50 1 126.848 44.6447 36.9491 -1 -1 1 
149 50 2 127.596 45.3085 36.9774 -1 -1 1 
150 50 2 127.209 43.7479 36.6923 -1 -1 1 
151 51 1 155.149 28.8292 12.7118 -1 0 0 
152 51 2 154.176 29.0593 12.6949 -1 0 0 
153 51 2 155.555 29.0298 11.82 -1 0 0 
154 52 1 125.769 23.0402 32.6344 -1 -1 0 
155 52 2 124.978 23.0093 33.2461 -1 -1 0 
156 52 2 126.578 23.3229 33.1495 -1 -1 0 
157 53 1 114.166 13.3063 22.3424 -1 -1 0 
158 53 2 115.111 13.0012 22.4657 -1 -1 0 
159 53 2 113.649 12.6015 21.857 -1 -1 0 
160 54 1 243.582 6.2932 37.2456 -1 0 -1 
161 54 2 243.988 6.8194 36.4983 -1 0 -1 
162 54 2 242.679 6.66449 37.4628 -1 0 -1 
163 55 1 144.904 32.6035 16.6578 -1 -1 1 
164 55 2 145.344 32.905 17.5036 -1 -1 1 
165 55 2 144.89 33.3582 16.0019 -1 -1 1 
166 56 1 117.562 37.9971 18.6113 -1 -2 2 
167 56 2 117.406 38.9847 18.5906 -1 -2 2 
168 56 2 118.064 37.7215 17.7912 -1 -2 2 
169 57 1 109.311 36.5954 14.0417 -1 -2 1 
170 57 2 109.942 36.5993 13.2659 -1 -2 1 
171 57 2 108.75 35.7682 14.0109 -1 -2 1 
172 58 1 142.312 6.0634 15.3676 -1 -1 0 
173 58 2 142.15 6.68443 16.1345 -1 -1 0 
174 58 2 142.884 5.30161 15.6707 -1 -1 0 
175 59 1 51.4797 29.2883 25.4198 -1 0 0 
176 59 2 51.0901 30.1946 25.2562 -1 0 0 
177 59 2 51.2945 28.6989 24.6334 -1 0 0 
178 60 1 125.764 38.4654 7.71875 -1 -2 1 
179 60 2 126.617 38.9869 7.69723 -1 -2 1 
180 60 2 125.303 38.616 8.59345 -1 -2 1 
181 61 1 156.405 22.6784 16.8457 -1 -1 0 
182 61 2 156.768 22.1075 17.5823 -1 -1 0 
183 61 2 155.407 22.6245 16.8432 -1 -1 0 
184 62 1 126.885 37.1321 33.1933 -1 -1 2 
185 62 2 127.463 37.2149 32.381 -1 -1 2 
186 62 2 126.25 36.3694 33.074 -1 -1 2 
187 63 1 173.553 23.3015 36.9887 -1 0 1 
188 63 2 172.704 22.912 36.6313 -1 0 1 
189 63 2 173.916 23.9662 36.3354 -1 0 1 
190 64 1 83.7921 10.306 26.2668 -1 1 1 
191 64 2 82.982 9.73175 26.3853 -1 1 1 
192 64 2 83.7966 10.6894 25.3433 -1 1 1 
193 65 1 147.924 28.7816 5.69936 -1 0 1 
194 65 2 147.489 28.0868 6.27259 -1 0 1 
195 65 2 147.584 29.6861 5.95653 -1 0 1 
196 66 1 86.3392 33.7288 6.18713 -1 0 1 
197 66 2 86.8882 34.135 6.91764 -1 0 1 
198 66 2 86.944 33.3182 5.50473 -1 0 1 
199 67 1 121.385 28.3842 40.3313 -1 0 1 
200 67 2 121.493 29.1883 40.9159 -1 0 1 
201 67 2 120.412 28.186 40.2142 -1 0 1 
202 68 1 115.084 42.899 34.8071 -1 -2 1 
203 68 2 115.183 42.8252 35.7995 -1 -2 1 
204 68 2 114.186 42.5549 34.5347 -1 -2 1 
205 69 1 129.863 19.1906 27.1787 -1 1 1 
206 69 2 129.419 19.8585 26.5819 -1 1 1 
207 69 2 130.562 18.6951 26.6623 -1 1 1 
208 70 1 137.114 4.97909 37.6397 -1 1 0 
209 70 2 136.341 4.34865 37.7102 -1 1 0 
210 70 2 136.774 5.91259 37.5269 -1 1 0 
211 71 1 126.089 34.9471 40.3787 -1 0 0 
212 71 2 126.337 34.8805 39.4123 -1 0 0 
213 71 2 126.847 35.3503 40.8905 -1 0 0 
214 72 1 90.6226 44.9098 29.7291 -1 0 0 
215 72 2 89.7673 45.3494 29.4551 -1 0 0 
216 72 2 90.6296 43.9636 29.4054 -1 0 0 
217 73 1 149.495 24.6552 45.7825 -1 -2 1 
218 73 2 149.064 25.3899 45.2588 -1 -2 1 
219 73 2 150.401 24.9504 46.0872 -1 -2 1 
220 74 1 111.401 40.1447 28.0976 -1 -1 0 
221 74 2 111.885 40.8123 28.6631 -1 -1 0 
222 74 2 110.734 40.6172 27.5214 -1 -1 0 
223 75 1 53.3562 23.2782 9.99046 -1 1 1 
224 75 2 53.9058 23.4187 10.814 -1 1 1 
225 75 2 52.4075 23.0973 10.2497 -1 1 1 
226 76 1 108.107 36.2298 3.76068 -1 -2 2 
227 76 2 108.098 36.4734 4.73053 -1 -2 2 
228 76 2 108.932 35.7013 3.55779 -1 -2 2 
229 77 1 156.013 19.7227 30.5162 -1 0 1 
230 77 2 156.452 20.5512 30.8649 -1 0 1 
231 77 2 156.596 18.9324 30.706 -1 0 1 
232 78 1 75.3129 43.1709 16.2349 -1 -1 1 
233 78 2 76.2356 43.5508 16.1685 -1 -1 1 
234 78 2 75.0956 42.9892 17.1939 -1 -1 1 
235 79 1 102.067 8.96443 30.2902 -1 -1 1 
236 79 2 102.685 9.73432 30.1305 -1 -1 1 
237 79 2 101.12 9.2776 30.2221 -1 -1 1 
238 80 1 153.734 31.6626 29.1978 -1 -1 0 
239 80 2 154.196 32.2404 29.8707 -1 -1 0 
240 80 2 153.143 31.0084 29.6698 -1 -1 0 
241 81 1 152.839 38.1981 10.2966 -1 -1 1 
242 81 2 151.926 37.9252 10.5994 -1 -1 1 
243 81 2 153.483 38.1075 11.0563 -1 -1 1 
244 82 1 70.0036 7.49244 31.3939 -1 1 1 
245 82 2 69.3034 7.89975 31.9803 -1 1 1 
246 82 2 69.8624 6.50372 31.3438 -1 1 1 
247 83 1 130.247 3.70275 42.0349 -1 -1 1 
248 83 2 130.174 4.6888 42.1843 -1 -1 1 
249 83 2 129.414 3.25384 42.3577 -1 -1 1 
250 84 1 117.016 28.9194 29.8269 -1 1 2 
251 84 2 117.458 28.3293 30.5028 -1 1 2 
252 84 2 116.372 28.3804 29.284 -1 1 2 
253 85 1 81.5224 16.7294 32.4446 -1 0 0 
254 85 2 82.0384 15.8767 32.3622 -1 0 0 
255 85 2 82.0589 17.3949 32.9635 -1 0 0 
256 86 1 119.162 7.14682 45.1188 -1 0 0 
257 86 2 119.434 7.815 44.4262 -1 0 0 
258 86 2 118.438 6.5626 44.7522 -1 0 0 
259 87 1 111.141 16.6029 45.8308 -1 -1 0 
260 87 2 111.391 16.7807 46.7825 -1 -1 0 
261 87 2 111.645 15.8067 45.4967 -1 -1 0 
262 88 1 127.659 21.9194 28.8833 -1 0 -1 
263 88 2 128.17 21.9494 28.0238 -1 0 -1 
264 88 2 126.871 22.5314 28.8244 -1 0 -1 
265 89 1 107.483 15.1191 28.6525 -1 -1 1 
266 89 2 107.64 14.8438 29.6011 -1 -1 1 
267 89 2 106.905 14.4406 28.1996 -1 -1 1 
268 90 1 53.414 16.0691 29.1984 -1 0 0 
269 90 2 53.3811 16.2239 30.1858 -1 0 0 
270 90 2 52.4833 16.0464 28.8334 -1 0 0 
271 91 1 154.931 14.3767 45.8309 -1 0 -1 
272 91 2 154.035 14.067 45.5142 -1 0 -1 
273 91 2 154.829 14.8641 46.698 -1 0 -1 
274 92 1 49.7709 23.9258 38.5797 -1 0 0 
275 92 2 49.0354 24.5242 38.8973 -1 0 0 
276 92 2 49.8313 23.9721 37.5826 -1 0 0 
277 93 1 196.794 5.05655 6.71539 -1 1 0 
278 93 2 197.096 4.71397 7.60496 -1 1 0 
279 93 2 197.514 4.9047 6.03779 -1 1 0 
280 94 1 168.912 36.0202 34.2198 -1 -1 1 
281 94 2 168.841 35.6122 35.13 -1 -1 1 
282 94 2 168.548 36.9513 34.2425 -1 -1 1 
283 95 1 140.923 33.1771 17.5661 -1 0 0 
284 95 2 141.662 32.6286 17.1741 -1 0 0 
285 95 2 141.303 34.0125 17.9633 -1 0 0 
286 96 1 146.406 31.0201 15.1969 -1 0 0 
287 96 2 145.835 30.7557 14.4198 -1 0 0 
288 96 2 146.03 31.8439 15.6216 -1 0 0 
289 97 1 137.736 28.3776 33.9618 -1 0 0 
290 97 2 138.094 27.4784 34.2137 -1 0 0 
291 97 2 138.272 28.7491 33.2036 -1 0 0 
292 98 1 133.829 17.5405 32.6593 -1 0 1 
293 98 2 132.903 17.8602 32.4603 -1 0 1 
294 98 2 134.458 18.318 32.6561 -1 0 1 
295 99 1 98.2647 39.2143 35.197 -1 0 0 
296 99 2 97.9892 40.1078 35.5516 -1 0 0 
297 99 2 97.4508 38.6872 34.9526 -1 0 0 
298 100 1 146.497 13.684 14.8663 -1 1 1 
299 100 2 146.662 14.6569 15.0274 -1 1 1 
300 100 2 147.282 13.2866 14.3908 -1 1 1 
301 101 1 115.74 25.6641 35.4223 -1 0 0 
302 101 2 116.012 26.6013 35.6406 -1 0 0 
303 101 2 114.751 25.6298 35.2754 -1 0 0 
304 102 1 111.604 11.3426 10.6265 -1 0 0 
305 102 2 111.541 12.3287 10.472 -1 0 0 
306 102 2 112.443 11.1366 11.1296 -1 0 0 
307 103 1 133.347 13.9993 44.3201 -1 0 0 
308 103 2 133.181 13.0338 44.1192 -1 0 0 
309 103 2 133.406 14.5124 43.4638 -1 0 0 
310 104 1 190.015 35.464 17.0226 -1 0 1 
311 104 2 189.557 34.8727 16.3592 -1 0 1 
312 104 2 190.505 34.9009 17.6881 -1 0 1 
313 105 1 127.8 24.0858 12.0818 -1 -1 0 
314 105 2 128.748 24.3944 12.1603 -1 -1 0 
315 105 2 127.504 24.1569 11.1292 -1 -1 0 
316 106 1 117.685 35.0472 45.5959 -1 0 1 
317 106 2 118.641 35.1896 45.8508 -1 0 1 
318 106 2 117.182 34.6819 46.3793 -1 0 1 
319 107 1 142.015 25.0069 37.3946 -1 0 -1 
320 107 2 141.252 25.6115 37.1667 -1 0 -1 
321 107 2 142.785 25.1979 36.7857 -1 0 -1 
322 108 1 115.586 41.3638 42.5759 -1 -1 1 
323 108 2 115.003 42.1752 42.5421 -1 -1 1 
324 108 2 115.29 40.7713 43.3252 -1 -1 1 
325 109 1 118.888 11.4621 3.89226 -1 0 2 
326 109 2 119.264 11.6137 4.80615 -1 0 2 
327 109 2 119.323 12.0868 3.24433 -1 0 2 
328 110 1 77.5317 35.2044 8.81176 -1 0 1 
329 110 2 77.5938 36.2007 8.75154 -1 0 1 
330 110 2 76.9835 34.9522 9.60916 -1 0 1 
331 111 1 111.639 4.95886 41.2667 -1 1 1 
332 111 2 112.105 4.24047 40.75 -1 1 1 
333 111 2 112.256 5.32021 41.9657 -1 1 1 
334 112 1 130.091 19.8427 34.6198 -1 1 0 
335 112 2 130.476 20.6503 34.1735 -1 1 0 
336 112 2 129.176 20.0558 34.962 -1 1 0 
337 113 1 112.899 28.25 12.1134 -1 -1 1 
338 113 2 112.548 29.1258 11.7823 -1 -1 1 
339 113 2 112.699 28.1578 13.0887 -1 -1 1 
340 114 1 118.85 10.8275 23.2206 -1 0 1 
341 114 2 119.798 11.1457 23.2069 -1 0 1 
342 114 2 118.832 9.83103 23.1383 -1 0 1 
343 115 1 135.905 18.5532 35.4881 -1 0 0 
344 115 2 136.86 18.8509 35.4661 -1 0 0 
345 115 2 135.868 17.5651 35.6369 -1 0 0 
346 116 1 113.036 9.43011 46.6616 -1 0 -1 
347 116 2 112.253 10.0002 46.4119 -1 0 -1 
348 116 2 112.71 8.56504 47.043 -1 0 -1 
349 117 1 82.8768 22.8526 16.4505 -1 0 1 
350 117 2 83.6458 22.4506 15.9534 -1 0 1 
351 117 2 83.193 23.649 16.9661 -1 0 1 
352 118 1 97.6884 6.66874 24.823 -1 1 0 
353 118 2 97.7111 6.58385 23.8268 -1 1 0 
354 118 2 96.7406 6.76128 25.1281 -1 1 0 
355 119 1 143.763 12.888 34.1928 -1 0 -1 
356 119 2 143.558 11.9878 33.8081 -1 0 -1 
357 119 2 144.651 13.2002 33.8573 -1 0 -1 
358 120 1 129.842 35.7441 16.0899 -1 0 0 
359 120 2 129.8 34.7812 15.8234 -1 0 0 
360 120 2 129.882 35.8126 17.0867 -1 0 0 
361 121 1 160.957 5.01089 14.9406 -1 1 0 
362 121 2 160.661 5.45633 15.7858 -1 1 0 
363 121 2 160.425 4.17527 14.8009 -1 1 0 
364 122 1 111.255 11.3996 6.30298 -1 0 1 
365 122 2 111.355 11.836 5.40879 -1 0 1 
366 122 2 110.35 11.6056 6.67519 -1 0 1 
367 123 1 138.463 46.7997 38.0179 -1 0 1 
368 123 2 138.226 3.21617 37.4579 -1 1 1 
369 123 2 137.854 46.0394 37.7943 -1 0 1 
370 124 1 124.212 43.9387 30.6056 -1 -1 1 
371 124 2 124.171 43.4887 29.7135 -1 -1 1 
372 124 2 123.835 44.8617 30.5312 -1 -1 1 
373 125 1 100.162 31.6629 3.33989 -1 -1 1 
374 125 2 99.5979 32.4831 3.43567 -1 -1 1 
375 125 2 101.007 31.7767 3.86207 -1 -1 1 
376 126 1 85.5364 31.7663 10.0351 -1 0 1 
377 126 2 85.8813 32.7049 10.048 -1 0 1 
378 126 2 86.2701 31.1454 9.75903 -1 0 1 
379 127 1 151.183 15.4735 9.79958 -1 0 0 
380 127 2 151.546 15.5079 10.731 -1 0 0 
381 127 2 150.373 16.0567 9.73523 -1 0 0 
382 128 1 132.742 22.264 16.6943 -1 0 1 
383 128 2 132.098 21.5343 16.4636 -1 0 1 
384 128 2 132.766 22.9343 15.9526 -1 0 1 
385 129 1 152.559 14.086 35.5543 -1 0 -1 
386 129 2 151.997 13.2626 35.6332 -1 0 -1 
387 129 2 153.524 13.8276 35.5031 -1 0 -1 
388 130 1 66.9492 21.219 19.5642 -1 1 1 
389 130 2 66.8361 21.6293 20.4691 -1 1 1 
390 130 2 67.7093 21.6628 19.0896 -1 1 1 
391 131 1 188.438 16.7904 33.6774 -1 0 0 
392 131 2 189.335 16.3478 33.6848 -1 0 0 
393 131 2 187.888 16.4411 34.4358 -1 0 0 
394 132 1 110.109 10.4448 28.7798 -1 0 1 
395 132 2 109.898 10.1162 27.8593 -1 0 1 
396 132 2 110.926 9.98011 29.1203 -1 0 1 
397 133 1 149.349 40.1761 8.72656 -1 0 0 
398 133 2 149.042 41.0825 8.43614 -1 0 0 
399 133 2 149.952 39.7891 8.02903 -1 0 0 
400 134 1 183.693 39.814 45.4793 -1 0 -1 
401 134 2 183.515 39.1606 46.2151 -1 0 -1 
402 134 2 184.602 39.6473 45.0979 -1 0 -1 
403 135 1 86.6407 26.6079 29.1684 -1 0 1 
404 135 2 86.0554 27.4156 29.2398 -1 0 1 
405 135 2 87.1652 26.5007 30.0131 -1 0 1 
406 136 1 129.39 27.3178 27.3238 -1 -1 1 
407 136 2 130.355 27.0728 27.414 -1 -1 1 
408 136 2 128.927 27.1771 28.1991 -1 -1 1 
409 137 1 147.286 10.0877 35.1934 -1 0 1 
410 137 2 147.18 10.9995 35.5901 -1 0 1 
411 137 2 148.149 10.0412 34.6912 -1 0 1 
412 138 1 131.953 25.8732 40.3339 -1 0 1 
413 138 2 131.685 25.6235 41.2646 -1 0 1 
414 138 2 131.474 25.2864 39.6809 -1 0 1 
415 139 1 139.834 8.0815 38.2959 -1 0 1 
416 139 2 138.921 8.04477 38.7015 -1 0 1 
417 139 2 139.785 8.53187 37.4044 -1 0 1 
418 140 1 113.36 8.03726 6.67198 -1 1 2 
419 140 2 114.32 7.77407 6.76534 -1 1 2 
420 140 2 113.203 8.90185 7.14944 -1 1 2 
421 141 1 190.023 14.0667 26.8873 -1 0 0 
422 141 2 190.726 13.3841 26.6894 -1 0 0 
423 141 2 190.431 14.9797 26.8721 -1 0 0 
424 142 1 128.829 37.6503 24.1713 -1 0 0 
425 142 2 128.475 38.0853 23.3436 -1 0 0 
426 142 2 128.985 38.3458 24.8726 -1 0 0 
427 143 1 143.877 43.1343 9.85842 -1 0 1 
428 143 2 144.366 42.2882 9.6476 -1 0 1 
429 143 2 142.894 42.9509 9.89409 -1 0 1 
430 144 1 114.261 17.2754 19.7273 -1 0 0 
431 144 2 114.157 17.0584 18.7567 -1 0 0 
432 144 2 114.548 18.2281 19.8271 -1 0 0 
433 145 1 161.355 46.7724 41.3131 -1 -1 -1 
434 145 2 161.037 3.0541 40.6314 -1 0 -1 
435 145 2 162.354 46.7976 41.3603 -1 -1 -1 
436 146 1 168.687 41.3291 29.4457 -1 -1 0 
437 146 2 168.62 42.2292 29.0154 -1 -1 0 
438 146 2 167.879 41.1699 30.0133 -1 -1 0 
439 147 1 124.57 43.9583 24.313 -1 -1 2 
440 147 2 124.945 43.0322 24.3488 -1 -1 2 
441 147 2 124.645 44.3128 23.381 -1 -1 2 
442 148 1 113.577 12.9271 8.23804 -1 0 1 
443 148 2 113.948 13.0751 7.32113 -1 0 1 
444 148 2 113.474 11.9459 8.40147 -1 0 1 
445 149 1 156.609 34.6348 18.5216 -1 0 0 
446 149 2 157.186 35.4053 18.7916 -1 0 0 
447 149 2 156.291 34.7695 17.5831 -1 0 0 
448 150 1 116.156 18.6376 29.984 -1 1 0 
449 150 2 115.591 19.2819 29.4688 -1 1 0 
450 150 2 117.024 19.0728 30.2226 -1 1 0 
451 151 1 150.862 21.827 42.8303 -1 0 0 
452 151 2 151.169 20.9567 42.4446 -1 0 0 
453 151 2 150.119 21.661 43.4783 -1 0 0 
454 152 1 173.592 25.2921 14.3144 -1 0 1 
455 152 2 174.152 25.3001 15.1429 -1 0 1 
456 152 2 172.766 25.8362 14.4647 -1 0 1 
457 153 1 171.214 32.0002 21.9036 -1 1 0 
458 153 2 170.257 32.2823 21.9677 -1 1 0 
459 153 2 171.468 31.4948 22.728 -1 1 0 
460 154 1 118.926 19.0185 5.71325 -1 -1 1 
461 154 2 119.669 18.531 6.17165 -1 -1 1 
462 154 2 119.031 18.9307 4.72265 -1 -1 1 
463 155 1 146.336 35.4242 17.5582 -1 0 -2 
464 155 2 146.248 35.9171 18.4239 -1 0 -2 
465 155 2 147.199 34.9188 17.5491 -1 0 -2 
466 156 1 130.148 46.8252 39.4691 -1 0 0 
467 156 2 129.43 46.255 39.8679 -1 0 0 
468 156 2 130.243 3.28773 40.0038 -1 1 0 
469 157 1 108.57 26.9628 34.8292 -1 0 1 
470 157 2 108.926 27.0061 35.7628 -1 0 1 
471 157 2 109.212 26.4589 34.2511 -1 0 1 
472 158 1 129.137 30.0596 45.0695 -1 -1 0 
473 158 2 129.479 29.5142 45.8346 -1 -1 0 
474 158 2 128.935 29.4588 44.2961 -1 -1 0 
475 159 1 168.762 28.4928 38.0868 -1 -1 -1 
476 159 2 168.082 27.7669 37.9871 -1 -1 -1 
477 159 2 168.846 28.9918 37.2243 -1 -1 -1 
478 160 1 147.944 21.657 24.2477 -1 -1 0 
479 160 2 148.725 22.1003 24.6871 -1 -1 0 
480 160 2 147.217 21.5177 24.9208 -1 -1 0 
481 161 1 114.845 30.5724 21.959 -1 -1 1 
482 161 2 114.575 29.81 21.3708 -1 -1 1 
483 161 2 114.782 30.2927 22.917 -1 -1 1 
484 162 1 92.2039 37.9005 39.2022 -1 0 0 
485 162 2 92.862 38.0032 38.4562 -1 0 0 
486 162 2 92.2504 38.7007 39.8001 -1 0 0 
487 163 1 97.4193 12.4038 15.1451 -1 0 1 
488 163 2 97.1068 12.1227 16.0525 -1 0 1 
489 163 2 97.0803 13.3232 14.9459 -1 0 1 
490 164 1 76.9763 15.5512 36.4037 -1 1 1 
491 164 2 76.3086 15.6349 35.664 -1 1 1 
492 164 2 76.5591 15.0736 37.1768 -1 1 1 
493 165 1 115.432 42.667 37.4961 -1 -1 0 
494 165 2 116.033 42.5538 38.2871 -1 -1 0 
495 165 2 114.523 42.9481 37.8055 -1 -1 0 
496 166 1 112.612 43.2421 11.3629 -1 -2 1 
497 166 2 112.011 44.0399 11.3192 -1 -2 1 
498 166 2 112.074 42.4317 11.5953 -1 -2 1 
499 167 1 140.765 18.2914 5.71736 -1 0 0 
500 167 2 140.874 17.3467 6.02661 -1 0 0 
501 167 2 140.402 18.8471 6.46517 -1 0 0 
502 168 1 126.618 15.7953 20.3222 -1 1 1 
503 168 2 127.164 16.4158 20.8852 -1 1 1 
504 168 2 127.199 15.0568 19.9806 -1 1 1 
505 169 1 140.493 3.00491 27.1894 -1 1 -1 
506 169 2 141.361 46.9743 26.9071 -1 0 -1 
507 169 2 140.661 3.69185 27.8963 -1 1 -1 
508 170 1 124.521 16.3035 22.1171 -1 1 -1 
509 170 2 123.682 15.7877 22.2885 -1 1 -1 
510 170 2 125.162 15.735 21.6014 -1 1 -1 
511 171 1 105.251 35.2381 40.1169 -1 0 -1 
512 171 2 104.913 34.3324 40.373 -1 0 -1 
513 171 2 105.827 35.1611 39.3028 -1 0 -1 
514 172 1 116.177 30.6894 11.0838 -1 -1 1 
515 172 2 117.005 30.7001 11.645 -1 -1 1 
516 172 2 116.195 29.8934 10.4789 -1 -1 1 
517 173 1 165.446 8.54821 29.7797 -1 1 -1 
518 173 2 164.99 7.66761 29.9108 -1 1 -1 
519 173 2 165.048 9.22449 30.4001 -1 1 -1 
520 174 1 126.802 34.732 37.7724 -1 0 1 
521 174 2 127.651 34.2858 38.0562 -1 0 1 
522 174 2 127.01 35.6351 37.3964 -1 0 1 
523 175 1 82.5913 18.9916 36.5858 -1 0 0 
524 175 2 82.2808 18.0517 36.4434 -1 0 0 
525 175 2 83.5883 19.0052 36.6624 -1 0 0 
526 176 1 107.961 15.1737 23.6642 -1 0 1 
527 176 2 107.787 15.6514 24.5253 -1 0 1 
528 176 2 108.782 14.61 23.7558 -1 0 1 
529 177 1 75.2587 23.8099 3.27441 -1 1 2 
530 177 2 75.0169 23.4069 46.7689 -1 1 1 
531 177 2 76.1719 23.5027 3.54204 -1 1 2 
532 178 1 109.661 27.7191 37.0962 -1 1 1 
533 178 2 110.57 28.0865 37.2931 -1 1 1 
534 178 2 109.323 27.2198 37.8941 -1 1 1 
535 179 1 113.272 33.3749 18.9618 -1 -1 2 
536 179 2 113.607 34.0562 19.6126 -1 -1 2 
537 179 2 112.514 33.7609 18.4359 -1 -1 2 
538 180 1 171.033 18.5183 17.7503 -1 1 -1 
539 180 2 172.02 18.5646 17.5937 -1 1 -1 
540 180 2 170.652 17.7434 17.2465 -1 1 -1 
541 181 1 143.264 29.5493 44.4935 -1 0 0 
542 181 2 142.278 29.3804 44.4624 -1 0 0 
543 181 2 143.455 30.4687 44.1498 -1 0 0 
544 182 1 93.4034 19.4777 26.8726 -1 -1 2 
545 182 2 93.1879 19.2349 25.9267 -1 -1 2 
546 182 2 94.2939 19.096 27.1201 -1 -1 2 
547 183 1 93.5522 7.66374 11.3142 -1 0 2 
548 183 2 94.2012 8.28038 10.8687 -1 0 2 
549 183 2 93.2915 8.03998 12.2034 -1 0 2 
550 184 1 136.797 38.2275 11.6766 -1 -1 0 
551 184 2 136.968 37.9497 10.7314 -1 -1 0 
552 184 2 136.438 39.1607 11.6898 -1 -1 0 
553 185 1 96.7463 38.3434 45.4553 -1 0 0 
554 185 2 96.8135 37.449 45.0132 -1 0 0 
555 185 2 97.6612 38.6629 45.7019 -1 0 0 
556 186 1 157.283 9.05603 45.1227 -1 0 -1 
557 186 2 157.761 9.91243 45.3193 -1 0 -1 
558 186 2 157.948 8.35529 44.8645 -1 0 -1 
559 187 1 163.012 25.1578 3.1485 -1 1 0 
560 187 2 163.593 25.3388 3.94186 -1 1 0 
561 187 2 162.322 24.4751 3.38947 -1 1 0 
562 188 1 127.083 26.1399 15.6265 -1 0 0 
563 188 2 127.763 26.094 16.358 -1 0 0 
564 188 2 126.341 26.7521 15.8994 -1 0 0 
565 189 1 121.278 8.64721 35.0251 -1 1 1 
566 189 2 121.597 7.79701 34.6066 -1 1 1 
567 189 2 120.282 8.70058 34.9531 -1 1 1 
568 190 1 97.527 41.151 46.7481 -1 0 0 
569 190 2 96.8412 40.6514 46.2188 -1 0 0 
570 190 2 98.3941 40.6534 46.7241 -1 0 0 
571 191 1 174.887 13.5335 8.18644 -1 1 0 
572 191 2 174.704 14.0643 9.01391 -1 1 0 
573 191 2 174.722 14.1037 7.38151 -1 1 0 
574 192 1 164.62 47.1012 29.5358 -1 0 1 
575 192 2 163.661 47.1123 29.8198 -1 0 1 
576 192 2 164.905 46.1589 29.3598 -1 0 1 
577 193 1 185.759 27.3104 46.0716 -1 0 -1 
578 193 2 185.143 28.0192 46.4143 -1 0 -1 
579 193 2 185.332 26.4135 46.185 -1 0 -1 
580 194 1 143.122 46.7244 11.424 -1 -1 1 
581 194 2 143.073 46.1832 12.2634 -1 -1 1 
582 194 2 143.012 46.123 10.6327 -1 -1 1 
583 195 1 153.546 42.0575 41.2544 -1 -1 1 
584 195 2 152.96 42.6383 40.6895 -1 -1 1 
585 195 2 153.784 41.2296 40.7464 -1 -1 1 
586 196 1 107.502 22.1351 12.9079 -1 -1 1 
587 196 2 108.201 22.2263 12.1978 -1 -1 1 
588 196 2 107.133 23.0375 13.1297 -1 -1 1 
589 197 1 136.481 42.5876 19.6509 -1 -2 -1 
590 197 2 136.387 43.3141 18.9702 -1 -2 -1 
591 197 2 135.639 42.0482 19.6801 -1 -2 -1 
592 198 1 150.297 35.5374 20.1426 -1 -1 0 
593 198 2 150.118 36.1634 20.9016 -1 -1 0 
594 198 2 150.677 34.6834 20.4977 -1 -1 0 
595 199 1 131.745 42.6327 20.5709 -1 -1 1 
596 199 2 132.359 43.3505 20.8984 -1 -1 1 
597 199 2 130.846 42.7449 20.994 -1 -1 1 
598 200 1 126.743 23.9745 45.0841 -1 -1 0 
599 200 2 127.567 23.8667 44.5278 -1 -1 0 
600 200 2 126.894 23.5688 45.9856 -1 -1 0 
601 201 1 165.536 12.2631 9.41239 -1 -1 1 
602 201 2 164.699 12.7026 9.08563 -1 -1 1 
603 201 2 165.645 12.4399 10.3906 -1 -1 1 
604 202 1 72.113 36.1501 4.22628 -1 -1 1 
605 202 2 71.1886 35.781 4.12959 -1 -1 1 
606 202 2 72.7608 35.5557 3.74972 -1 -1 1 
607 203 1 153.2 26.2654 18.3037 -1 0 0 
608 203 2 152.385 25.6896 18.3638 -1 0 0 
609 203 2 153.694 26.0567 17.4596 -1 0 0 
610 204 1 134.504 26.8134 44.1399 -1 0 -1 
611 204 2 134.626 27.7197 44.5447 -1 0 -1 
612 204 2 134.699 26.8571 43.1601 -1 0 -1 
613 205 1 83.5316 39.5032 10.3277 -1 0 1 
614 205 2 83.1493 39.3349 9.41909 -1 0 1 
615 205 2 83.3944 38.6959 10.9018 -1 0 1 
616 206 1 129 5.49043 45.4813 -1 0 -1 
617 206 2 129.629 5.9419 44.8485 -1 0 -1 
618 206 2 129.518 5.08901 46.2366 -1 0 -1 
619 207 1 110.454 7.18916 42.506 -1 -1 0 
620 207 2 110.466 6.32822 41.9975 -1 -1 0 
621 207 2 110.933 7.06926 43.3757 -1 -1 0 
622 208 1 96.612 12.5196 22.9993 -1 -2 1 
623 208 2 96.9833 13.3583 23.3977 -1 -2 1 
624 208 2 97.2644 11.7726 23.1274 -1 -2 1 
625 209 1 147.103 26.8648 41.0092 -1 0 0 
626 209 2 147.88 26.3799 40.6093 -1 0 0 
627 209 2 147.175 26.8454 42.0064 -1 0 0 
628 210 1 178.416 20.6862 46.0088 -1 -1 0 
629 210 2 179.162 21.2603 46.3477 -1 -1 0 
630 210 2 178.694 20.2503 45.1527 -1 -1 0 
631 211 1 130.744 4.68573 3.0646 -1 -1 1 
632 211 2 130.557 5.41918 3.71806 -1 -1 1 
633 211 2 131.731 4.60701 2.92568 -1 -1 1 
634 212 1 104.846 25.6992 25.9494 -1 -1 1 
635 212 2 105.572 25.2132 26.4358 -1 -1 1 
636 212 2 103.997 25.6442 26.4757 -1 -1 1 
637 213 1 130.047 40.5393 11.6642 -1 -1 0 
638 213 2 130.209 40.0444 10.8105 -1 -1 0 
639 213 2 129.36 40.0546 12.2053 -1 -1 0 
640 214 1 103.789 10.5548 43.0729 -1 0 0 
641 214 2 103.062 10.9313 42.4987 -1 0 0 
642 214 2 104.665 10.6373 42.5982 -1 0 0 
643 215 1 192.624 11.8094 35.2242 -1 -1 0 
644 215 2 191.891 11.3576 34.7158 -1 -1 0 
645 215 2 193.332 12.1138 34.5877 -1 -1 0 
646 216 1 124.691 28.8117 22.1086 -1 -1 0 
647 216 2 123.958 28.8624 22.7864 -1 -1 0 
648 216 2 125.253 28.0035 22.2851 -1 -1 0 
649 217 1 148.887 40.9711 25.9143 -1 -1 -1 
650 217 2 148.407 40.4158 25.2354 -1 -1 -1 
651 217 2 149.182 40.3894 26.6723 -1 -1 -1 
652 218 1 136.471 8.02214 4.78457 -1 -1 1 
653 218 2 136.698 7.47139 5.58765 -1 -1 1 
654 218 2 136.788 8.96027 4.923 -1 -1 1 
655 219 1 108.024 43.4557 19.4366 -1 -1 0 
656 219 2 107.311 42.784 19.636 -1 -1 0 
657 219 2 107.602 44.3167 19.1536 -1 -1 0 
658 220 1 144.074 23.8094 34.6433 -1 0 0 
659 220 2 144.934 23.6865 35.1376 -1 0 0 
660 220 2 143.781 24.763 34.715 -1 0 0 
661 221 1 95.1517 36.3735 43.5346 -1 -1 1 
662 221 2 94.2321 36.5523 43.1846 -1 -1 1 
663 221 2 95.0956 35.7552 44.3185 -1 -1 1 
664 222 1 93.935 17.2562 33.3363 -1 0 1 
665 222 2 93.9033 18.2498 33.4449 -1 0 1 
666 222 2 93.5689 17.0071 32.4397 -1 0 1 
667 223 1 159.57 23.0404 32.4323 -1 0 -1 
668 223 2 159.235 22.144 32.1421 -1 0 -1 
669 223 2 159.066 23.338 33.2433 -1 0 -1 
670 224 1 195.136 44.8965 33.3235 -1 0 1 
671 224 2 194.751 44.1249 32.8168 -1 0 1 
672 224 2 194.394 45.4418 33.714 -1 0 1 
673 225 1 183.854 15.4026 19.1735 -1 0 0 
674 225 2 183.103 15.2039 18.5429 -1 0 0 
675 225 2 183.526 15.3272 20.1154 -1 0 0 
676 226 1 70.0624 45.489 28.3542 -1 1 0 
677 226 2 69.1779 45.0966 28.6065 -1 1 0 
678 226 2 70.3949 45.0517 27.5186 -1 1 0 
679 227 1 111.13 22.5937 31.7222 -1 -1 0 
680 227 2 111.407 21.7909 31.1942 -1 -1 0 
681 227 2 111.057 23.3837 31.1135 -1 -1 0 
682 228 1 121.98 3.21169 6.64364 -1 1 1 
683 228 2 122.112 4.16242 6.36318 -1 1 1 
684 228 2 121.992 3.15394 7.64191 -1 1 1 
685 229 1 72.5608 22.0929 27.6074 -1 1 -1 
686 229 2 71.9737 21.3561 27.9428 -1 1 -1 
687 229 2 72.0793 22.605 26.8961 -1 1 -1 
688 230 1 130.753 42.7851 46.2849 -1 -2 0 
689 230 2 130.151 43.2311 45.6228 -1 -2 0 
690 230 2 131.039 43.4492 46.9758 -1 -2 0 
691 231 1 104.697 32.411 46.3301 -1 -2 0 
692 231 2 105.099 32.034 45.4958 -1 -2 0 
693 231 2 105.178 33.2503 46.5826 -1 -2 0 
694 232 1 116.635 13.5223 29.1011 -1 0 0 
695 232 2 117.066 13.1394 28.2841 -1 0 0 
696 232 2 115.917 14.1637 28.8298 -1 0 0 
697 233 1 126.628 45.231 28.4609 -1 -1 1 
698 233 2 127.55 44.8897 28.2769 -1 -1 1 
699 233 2 125.967 44.4928 28.3284 -1 -1 1 
700 234 1 142.522 46.6939 17.9442 -1 -1 2 
701 234 2 143.091 3.0897 17.6635 -1 0 2 
702 234 2 141.978 46.9529 18.7425 -1 -1 2 
703 235 1 155.369 34.6906 15.9152 -1 0 1 
704 235 2 154.496 34.2633 16.1477 -1 0 1 
705 235 2 155.839 34.1365 15.2278 -1 0 1 
706 236 1 158.847 38.2393 12.5333 -1 -1 1 
707 236 2 159.336 38.5099 13.3629 -1 -1 1 
708 236 2 159.502 38.1077 11.7891 -1 -1 1 
709 237 1 127.901 44.0218 24.6588 -1 -1 1 
710 237 2 127.281 44.803 24.73 -1 -1 1 
711 237 2 128.452 43.9568 25.4908 -1 -1 1 
712 238 1 104.289 16.697 23.67 -1 -1 2 
713 238 2 105.196 16.8412 23.2746 -1 -1 2 
714 238 2 104.297 15.8674 24.2284 -1 -1 2 
715 239 1 130.447 6.83257 10.3549 -1 -1 0 
716 239 2 130.038 7.59181 9.8488 -1 -1 0 