LAMMPS (24 Apr 2013)
WARNING: OMP_NUM_THREADS environment is not set. (../comm.cpp:100)
  using 1 OpenMP thread(s) per MPI task
# ----------------- Init Section -----------------
units           real
atom_style      full
boundary		p p p
kspace_style	pppm 1.0e-4

# ----------------- Atom Definition Section -----------------
read_restart	confout-1.data
  orthogonal box = (14.6777 2.79043 2.79043) to (248.322 47.2096 47.2096)
  1 by 1 by 1 MPI processor grid
  44200 atoms
  29498 bonds
  14700 angles
  2 = max # of 1-2 neighbors
  2 = max # of 1-3 neighbors
  4 = max # of 1-4 neighbors
  6 = max # of special neighbors

# ----------------- Settings Section -----------------------

group 			spc		type	1 2
44100 atoms in group spc
group			p1_end_atom	id 	44150
1 atoms in group p1_end_atom
group			p2_end_atom	id 	44200
1 atoms in group p2_end_atom

# ----------------- Run Section -----------------
# Write initial structure out
dump            icrd all custom 5 system-2.lammpstrj id mol type x y z ix iy iz
dump_modify     icrd sort id
run             1
WARNING: No fixes defined, atoms won't move (../verlet.cpp:54)
PPPM initialization ...
  G vector (1/distance) = 0.263151
  grid = 90 25 25
  stencil order = 5
  estimated absolute RMS force accuracy = 0.0402991
  estimated relative force accuracy = 0.00012136
  using double precision FFTs
  3d grid and FFT values/proc = 97280 56250
Memory usage per processor = 118.427 Mbytes
Step Temp E_pair E_mol TotEng Press 
  150001    200.85353   -144737.28    29.040236   -118246.02    24089.365 
  150002    200.85353   -144737.28    29.040236   -118246.02    24089.365 
Loop time of 0.474364 on 1 procs (1 MPI x 1 OpenMP) for 1 steps with 44200 atoms

Pair  time (%) = 0.434829 (91.6657)
Bond  time (%) = 0.00328612 (0.692743)
Kspce time (%) = 0.035033 (7.38525)
Neigh time (%) = 0 (0)
Comm  time (%) = 0.000724077 (0.152642)
Outpt time (%) = 0.000241995 (0.0510146)
Other time (%) = 0.000249863 (0.0526732)

FFT time (% of Kspce) = 0.00810599 (23.1382)
FFT Gflps 3d (1d only) = 1.51798 2.98603

Nlocal:    44200 ave 44200 max 44200 min
Histogram: 1 0 0 0 0 0 0 0 0 0
Nghost:    70136 ave 70136 max 70136 min
Histogram: 1 0 0 0 0 0 0 0 0 0
Neighs:    1.45816e+07 ave 1.45816e+07 max 1.45816e+07 min
Histogram: 1 0 0 0 0 0 0 0 0 0

Total # of neighbors = 14581591
Ave neighs/atom = 329.9
Ave special neighs/atom = 2.00851
Neighbor list builds = 0
Dangerous builds = 0

# Reset the timestep
undump          icrd

# Timestep and Neighbour searching
timestep		2.0
neighbor        2.0 bin
neigh_modify	delay 4 every 1 check yes

# Fixes
#fix 			pull p1_end_atom addforce  0.25 0.0 0.0
#fix 			pull p2_end_atom addforce -0.25 0.0 0.0
fix 			shake spc shake 0.0001 10 0 b 1 a 1
  0 = # of size 2 clusters
  0 = # of size 3 clusters
  0 = # of size 4 clusters
  14700 = # of frozen angles
fix   			npt all npt temp 300.0 300.0 100.0 iso 1.0 1.0 1000.0

# Initial velocity
#velocity		all create 300 432567 dist uniform

# Write out thermodynamic information
thermo_style    custom step temp press vol pe ke evdwl ecoul epair
thermo	        250

# Write out trajectory
dump            cxtc all xtc 250 traj-2.xtc

# Write out velocity
#dump 			1 all custom 1 vel_npt.txt vx vy vz

# Checkpoint files
restart         5000 state_cpt-*.data

# Final run command
run             100000
PPPM initialization ...
  G vector (1/distance) = 0.263151
  grid = 90 25 25
  stencil order = 5
  estimated absolute RMS force accuracy = 0.0402991
  estimated relative force accuracy = 0.00012136
  using double precision FFTs
  3d grid and FFT values/proc = 97280 56250
Memory usage per processor = 125.565 Mbytes
Step Temp Press Volume PotEng KinEng E_vdwl E_coul E_pair 
  150002    300.94326   -8.0032672    460994.85   -144708.24    26462.217    24697.192    561022.79   -144737.28 
  150250    301.07924    36.599797    460221.61   -144875.83    26474.174    24762.252    560782.03   -144896.73 
  150500    300.44584    81.960135    460544.68   -144750.73    26418.478    24862.999    560811.19   -144778.57 
  150750    299.76202    -87.96489    460161.73   -145052.02    26358.349    24571.461    560794.77   -145083.77 
  151000    300.86991    80.449524    459633.11   -144937.09    26455.766    24827.389    560654.49   -144964.72 
  151250    301.52932   -124.22994    461956.86   -144677.83    26513.749    24414.685    561320.81   -144708.79 
  151500    298.78329    166.56608    458697.03    -145024.7    26272.288    25048.868    560345.79   -145057.22 
  151750    300.49671    98.580365    459975.08   -144862.98    26422.951      24816.6    560728.16   -144896.23 
  152000    301.86879   -96.709583     460472.5   -144777.25      26543.6    24397.406    561242.11   -144808.75 
  152250    301.17833     11.06996    460532.94   -144788.39    26482.887    24686.914    560942.64   -144814.27 
  152500    301.65464    80.247468     461140.2   -144871.53    26524.769    24887.766    560657.15   -144900.37 
  152750    299.52246    139.70047    460511.81   -144667.04    26337.284    24920.044    560823.69   -144695.02 
  153000    299.62213    99.825544     458556.9   -145168.05    26346.048    24884.619    560386.14   -145198.68 
  153250    298.91736   -77.413378    460626.94   -144648.05    26284.077    24395.536    561370.82   -144680.79 
  153500    301.30377    137.97002    460013.34    -145121.2    26493.917    24995.495    560304.57   -145147.64 
  153750    301.47605    29.704008    459929.54   -145051.05    26509.065    24728.579    560654.66   -145079.17 
  154000    299.30013   -15.797854    460225.36   -145035.77    26317.734      24726.7     560649.8   -145066.61 
  154250    297.69372    71.450529    458430.13   -145125.46    26176.482    24831.439    560478.49   -145153.68 
  154500    299.24655   -46.947164    459574.36   -145206.23    26313.023    24633.914    560591.96   -145233.65 
  154750    299.71741    81.676932    459725.29   -144686.33    26354.426    24701.852    561039.92   -144719.25 
  155000    299.60386    102.80804    459703.98   -144770.42    26344.442    24836.839    560825.82   -144796.91 
  155250    297.64887   -66.972746     461011.6   -144779.07    26172.538        24635    560994.85   -144805.84 
  155500    298.81615    50.223597    460443.75   -144967.69    26275.178    24831.885    560618.43   -144995.27 
  155750    300.34241   -26.861525    459868.03   -144637.75    26409.383    24532.424    561251.87   -144663.31 
  156000    299.75884   -79.424996     459455.4   -144869.47    26358.069    24406.619    561130.73    -144893.2 
  156250    301.56162     30.36002    458502.26   -145145.37    26516.589    24753.936    560545.28   -145176.06 
  156500    300.42187     56.49522    458356.83   -144785.23     26416.37    24713.659    560924.94   -144810.92 
  156750    301.22174   -98.643741    460524.32   -144770.55    26486.703    24474.779     561201.9    -144793.1 
  157000    300.28639     169.9335    460016.18   -144788.16    26404.458    24943.762    560683.48   -144813.35 
  157250    299.62819    14.007542    461297.85      -144768    26346.581     24792.32    560866.67   -144799.84 
  157500      300.319    68.925542       460202   -144782.52    26407.325    24710.633    560918.66    -144812.5 
  157750     300.0736     95.58939    459659.74   -144964.75    26385.746    24914.723    560553.19   -144990.39 
  158000    298.35458    95.427293    460522.83      -144963    26234.592    24923.097    560559.15   -144984.69 
  158250    303.28567    8.5932314    462799.82   -144695.84    26668.187    24776.044    560944.94   -144730.49 
  158500    296.69874   -83.813809    461314.25   -144716.11    26088.992    24567.393    561150.44   -144740.66 
  158750    300.85627   -83.707476     459916.4   -144976.83    26454.567    24482.247    560975.98   -145000.16 
  159000    299.31236   -39.629021    461348.69   -144881.64     26318.81    24643.915    560913.11    -144904.9 
  159250    301.52614   -97.870485    462679.72   -144653.89     26513.47    24511.554    561251.65   -144677.49 
  159500    301.89079     148.9289    459454.41    -145156.7    26545.534     25054.32    560216.33   -145185.09 
  159750    300.06627   -63.283642    459838.56   -144988.87    26385.102    24588.401    560846.73    -145014.9 
  160000    299.68354   -21.525453    459804.67   -144785.07    26351.448    24625.396    561021.57   -144815.08 
  160250    301.96732   -180.74791       460884   -144840.26    26552.263    24277.293     561321.8   -144859.45 
  160500    297.65297    117.52034    460797.24   -144992.32    26172.898    25027.453     560409.3   -145024.55 
  160750    298.75439    112.96254    460160.06   -145263.91    26269.747    25112.622    560041.91   -145295.01 
  161000    301.14834   -11.737646    460553.28   -145009.79     26480.25    24707.198    560706.45   -145034.41 
  161250    301.44043    3.0186746    458786.28   -145266.29    26505.933    24750.105    560420.15   -145291.15 
  161500    300.01428   -68.764233     461112.7   -145017.52     26380.53    24612.944     560791.8   -145043.99 
  161750    301.68872   -19.497373    460695.71   -144894.23    26527.765    24626.985    560895.81   -144921.71 
  162000    299.65325    -58.15381    459907.61   -144864.98    26348.784    24503.977    561032.52   -144898.44 
  162250    299.97777   -57.471386    461714.96   -144618.37     26377.32    24565.657    561239.57   -144647.24 
  162500    301.03246     93.78799    460610.41   -144774.96     26470.06    24802.644    560849.89   -144803.06 
  162750     300.9158    50.200676    461738.27   -145006.59    26459.802     24923.56    560488.43   -145036.38 
  163000    301.03262    64.113911    460501.35   -144967.21    26470.074    24805.302    560648.97   -144992.26 
  163250    297.75748    -64.57441    460371.64   -145397.95    26182.088    24815.836    560213.05   -145426.44 
  163500    302.60444   -104.87515    460217.76   -145043.95    26608.285    24504.841    560871.97   -145068.68 
  163750    300.54552    112.38789    460561.25   -144892.33    26427.242    24922.887    560614.09   -144915.92 
  164000    299.25493    175.60252    459554.01   -144959.24     26313.76    25082.039    560374.64   -144989.86 
  164250    298.34767   -121.95159    460674.94   -144739.32    26233.984    24368.815    561337.35   -144765.81 
  164500     303.0562   -14.361901    459058.66   -145562.27    26648.009    24770.659    560102.36   -145586.22 
  164750    302.53678    128.20465     458771.4   -145000.46    26602.336    24797.364    560619.61   -145027.48 
  165000    296.69556   -43.547781    460501.11   -145267.42    26088.713    24772.112    560386.16   -145293.78 
  165250    298.79716   -50.890744    460919.17   -144842.03    26273.508    24681.696    560902.83   -144867.95 
  165500    301.89218     21.76629     459486.6    -144978.7    26545.656    24617.629    560853.99   -145004.25 
  165750    301.03677   -5.5572259    459881.69   -145489.03    26470.439    24833.542    560096.81   -145515.15 
  166000    302.75935    66.839136    461903.74   -144992.73    26621.907    24951.244    560485.95    -145019.1 
  166250    298.13004   -91.871209     462275.3   -145173.16    26214.847      24773.7    560492.75   -145194.44 
  166500    298.83285   -64.262661    461587.56   -145094.35    26276.646    24758.766    560565.98   -145121.11 
  166750    300.47607   -19.057537    461841.47   -144696.26    26421.136    24669.744    561074.01   -144722.66 
  167000    296.96901    162.46974    458678.88    -144790.7    26112.757    24905.379    560731.72   -144823.05 
  167250    300.30661   -36.805758    461146.82   -144478.33    26406.235      24468.4    561460.77   -144504.23 
  167500     301.1765   -161.81205     460848.1   -144943.93    26482.725    24409.935    561061.65   -144968.53 
  167750    299.65236    61.483886    459641.73   -144759.41    26348.707     24671.53    560991.37   -144787.44 
  168000    298.72706    10.762061    458993.72   -144630.83    26267.344    24531.018    561258.86   -144660.49 
  168250    300.38802    94.261683    460055.26   -144782.76    26413.394    24724.665    560915.78   -144816.82 
  168500     299.9432   -31.309692    461880.77   -144843.26     26374.28    24681.377    560889.97   -144873.96 
  168750    298.49835    48.453648    460721.81   -144792.42    26247.233    24805.875    560823.22    -144812.8 
  169000    301.22392    62.983453    460354.71   -145150.26    26486.895    24908.903    560362.76   -145176.55 
  169250    298.16502   -33.527183    460418.76   -144740.57    26217.923    24676.288    560989.47   -144769.46 
  169500    297.33582   -28.427402    458961.69   -144960.52    26145.011    24658.335    560798.82      -144994 
  169750    299.29794   -173.05209     460772.4   -144941.01    26317.542    24409.039    561060.23   -144973.18 
  170000    299.22183    92.051443    459442.68   -144650.56    26310.849    24749.773    561031.99   -144680.18 
  170250    298.56721   -134.98937    460259.43   -144838.94    26253.288     24421.37    561155.03      -144865 
  170500    302.34129   -5.5321085     461399.2   -144806.73    26585.146    24674.384    560941.92   -144841.17 
  170750    298.76033   -53.394192    460660.07   -145207.73    26270.269    24711.656    560518.08   -145237.67 
  171000    299.20265    59.847336    460137.85   -145019.97    26309.163    24864.744    560527.05   -145052.51 
  171250    300.61397    192.90859    460036.94   -144861.63    26433.262    25041.219    560497.66   -144894.82 
  171500     298.7428    9.6614908    459196.92   -145130.35    26268.728    24718.971    560567.53   -145154.29 
  171750    298.31403   -84.087491    459481.36   -144821.35    26231.026    24383.908    561220.08   -144846.12 
  172000    299.11809   -216.89047    461147.92   -144805.41    26301.727     24330.55    561290.62   -144840.11 
  172250    299.05468    70.865155     460560.8   -144678.97    26296.152      24785.5    560973.55   -144704.29 
  172500    301.44308    9.5657072    460942.21   -144923.13    26506.166     24823.17    560669.46   -144960.64 
  172750     299.8763    45.350055    461679.51   -144853.51    26368.397    24844.039    560729.07   -144880.99 
  173000    302.70849    10.707301    461271.26   -144834.14    26617.435    24745.801    560832.05   -144868.64 
  173250    299.54102   -42.346223    461558.96   -144950.42    26338.916    24739.112    560727.31   -144981.45 
  173500    299.21007   -5.7060391    459794.41    -145136.1    26309.815    24746.043    560551.55   -145168.61 
  173750    299.58118   -57.933591    460087.67   -145112.85    26342.447    24624.176    560686.82    -145142.9 
  174000    300.22019   -117.45747       460124   -144842.07    26398.636    24406.463    561186.77   -144877.96 
  174250    301.76981    37.045304     458878.6      -145235    26534.895    24803.055    560377.58   -145263.87 
  174500    299.35843   -27.231369    460894.96   -145209.51    26322.861    24862.446    560357.44   -145242.37 
  174750    298.89756   -71.882959    460878.19   -145067.54    26282.336    24712.379    560635.26   -145100.75 
  175000    299.55628    225.85895    459286.19   -145415.97    26340.258    25264.531    559714.96   -145451.78 
  175250    296.87734   -39.900656    460337.25   -144957.59    26104.697    24643.593    560818.56   -144993.78 
  175500    300.01103   -31.365426    460724.28   -145136.01    26380.245    24695.247    560575.91   -145169.82 
  175750    299.02663   -200.33269    460153.21   -145020.96    26293.685    24315.519     561051.2   -145051.57 
  176000    299.22678    49.022971    460016.78   -144979.09    26311.285    24830.944    560620.96   -145006.84 
  176250    299.25713    140.28094    460429.71   -145000.51    26313.953    24992.172    560422.21   -145029.65 
  176500    301.00318   -148.03134    462200.64   -144510.13    26467.485    24311.052    561597.55   -144542.13 
  176750    301.07764     66.91182    460551.87   -145265.72    26474.033    24940.129    560209.46   -145300.85 
  177000    299.88081   -154.46008    459947.71   -144940.57    26368.795    24392.296    561099.17   -144972.32 
  177250    298.53033   -25.405424    458862.68   -144647.84    26250.045    24483.346    561297.11   -144675.34 
  177500    302.01754   -51.111689    458377.29   -144597.28    26556.679     24260.09       561578   -144633.77 
  177750    304.03282     39.75966    458054.82   -144793.73    26733.885    24522.921    561137.75   -144820.78 
  178000     300.2395   -7.9665933    460450.34   -144587.53    26400.334    24536.238    561282.64   -144615.91 
  178250    300.61977   -9.9007029    459845.14   -144747.35    26433.772    24589.625    561082.61   -144776.41 
  178500    299.71603   -145.20432    460807.19   -144526.61    26354.305    24267.041    561628.29   -144560.43 
  178750     297.6285   -30.829005     460937.3   -144442.06    26170.747    24502.268    561470.64   -144471.52 
  179000    299.14189   -82.471086     460283.8    -144520.4     26303.82    24402.992    561508.77   -144552.17 
  179250    300.12979    84.485617    458521.77   -144895.99    26390.688    24716.142    560833.39   -144927.47 
  179500    300.98941   -48.537965    460710.58    -144736.8    26466.274    24547.802     561142.6   -144769.33 
  179750    302.20473   -57.117192    460068.87   -144946.87    26573.139    24551.317    560926.29   -144982.68 
  180000    299.26027    117.62411    458211.78   -145271.73     26314.23    24931.714    560227.08   -145301.95 
  180250    301.14876   -1.9144945    458854.57   -145430.29    26480.286    24843.053    560168.48   -145455.46 
  180500    297.96724    -29.00015    460585.87   -144810.28    26200.532    24610.312    560981.11   -144846.33 
  180750    301.76411    31.305742    460081.53   -145128.04    26534.395    24822.243     560467.1   -145154.07 
  181000    302.11346    213.34987    457528.99   -145051.15    26565.113    25033.537       560353   -145079.64 
  181250     299.2394   -162.55791    460563.51   -144738.99    26312.394    24364.716    561308.15   -144775.91 
  181500    300.85733    103.75027    460668.94   -144857.59    26454.661    24916.704    560650.03   -144888.94 
  181750    298.72869   -6.6058569    458224.95   -145268.01    26267.487    24754.874    560412.29   -145296.88 
  182000    299.95053     85.25006    458814.94   -144918.11    26374.925    24806.888    560691.29   -144952.35 
  182250    299.71624    108.98727    460727.73   -144945.82    26354.323    24943.577    560535.91   -144975.58 
  182500    302.80476     68.70761    460623.19   -145076.07      26625.9    24833.607    560506.42   -145112.38 
  182750    300.66028   -126.76921    460641.97   -144941.36    26437.334    24474.476    560996.56   -144971.48 
  183000    300.66712    -24.37874    460441.93   -144997.06    26437.935    24751.875    560663.17   -145027.67 
  183250    299.63587    41.242733    457567.68   -145111.53    26347.257    24670.287    560635.18   -145141.25 
  183500    298.43258   -100.92577    459504.49   -145001.33     26241.45    24461.845    560963.45   -145033.09 
  183750    299.31407    10.441216     459371.3   -145105.07    26318.961    24738.436    560564.95   -145132.22 
  184000     300.7474    64.028104    459226.95      -145175    26444.994     24821.16    560453.32   -145202.99 
  184250    299.60261    44.977899     459097.3   -144912.66    26344.331    24713.381    560793.18   -144940.42 
  184500    297.34669    -32.75818    458112.86   -145055.87    26145.967    24541.968    560837.12   -145077.63 
  184750    299.63519   -96.096572    459743.55   -144989.69    26347.197    24514.677    560927.03   -145018.68 
  185000    300.92197   -96.694513    460341.53   -145018.92    26460.344    24556.328    560839.32   -145049.33 
  185250     301.4597   -83.057571     461374.3   -145067.86    26507.627     24635.69    560714.95   -145095.51 
  185500    298.26801   -177.08066     461400.8   -144848.95    26226.979    24376.017    561203.52   -144874.94 
  185750    299.25148   -105.33645    460243.89   -144501.07    26313.456    24255.802    561659.16   -144530.81 
  186000    302.44099    100.04635    459902.31   -144800.17    26593.914    24812.761    560801.52      -144828 
  186250    298.26814   -9.0067525    459349.99   -145178.97    26226.991    24726.892    560524.35   -145206.01 
  186500    301.83945   -161.27386     459008.9   -145134.93    26541.019    24402.821    560886.97   -145162.16 
  186750    299.87414   -100.10233    459157.92   -144950.73    26368.207    24395.387    561117.67   -144972.15 
  187000    298.01944     68.17129    458848.16   -145351.33    26205.123    24877.373    560202.84   -145376.55 
  187250    300.83955    -248.2621    461517.63   -145111.31    26453.097    24387.672    560936.26   -145137.21 
  187500    301.94374    -62.36138    460929.42   -145117.74    26550.189    24691.272    560615.97   -145144.48 
  187750    300.26745   -53.688039    461076.38   -144707.44    26402.791    24493.335    561207.46   -144734.99 
  188000    300.09716   -108.02133    461423.22   -145207.96    26387.818    24663.999    560541.88   -145235.21 
  188250    297.49094   -113.90355    461005.26   -144971.57    26158.651      24571.4    560882.52   -145001.88 
  188500    298.52436    53.993995    459204.96   -145182.77    26249.521    24878.385    560345.02   -145212.14 
  188750    297.91405    28.221626    459243.35   -144875.21    26195.855    24666.045    560867.88   -144907.22 
  189000    299.90926   -77.872343    459784.66   -144889.82    26371.296    24533.571     561004.7   -144922.45 
  189250    298.61868    137.02564    459459.99   -144730.22    26257.814    24881.471    560796.32   -144764.46 
  189500    300.11414   -135.46576    461450.63   -144861.03    26389.311    24446.952    561124.55   -144890.57 
  189750    298.84405     205.4291    458826.67   -144884.06    26277.631    25014.217    560513.69   -144914.09 
  190000    298.03577     85.48853    460028.73   -144888.84    26206.558    24858.399    560658.78   -144921.18 
  190250    300.15551   -58.644602    460820.63   -144684.82    26392.949    24471.583    561244.56   -144711.96 
  190500    301.16657   -52.828556    461468.84   -144649.74    26481.852    24549.016    561226.66      -144683 
  190750    298.68362    100.57168     458376.9   -145186.54    26263.524    24892.987    560358.39   -145219.48 
  191000    300.61702   -82.140297     459554.9   -144962.88     26433.53    24515.281    560957.89   -144994.15 
  191250    301.46898   -40.956703     458083.8   -145014.76    26508.444    24470.666    560936.98   -145045.82 
  191500    299.24836   -62.927178    459228.72   -145032.03    26313.182    24552.581     560861.6   -145060.16 
  191750    301.98851    56.095198    457886.19   -145089.82    26554.126    24757.128    560573.85   -145118.32 
  192000    304.09557   -52.832225    459219.81    -144832.6    26739.402    24451.421    561154.85   -144864.64 
  192250    299.48712    114.10235    459491.29   -145119.08    26334.176    24999.224    560313.27   -145148.45 
  192500    300.88599     46.37255     459819.3   -145146.54    26457.181    24902.135    560382.07   -145175.93 
  192750    299.48511    81.907754     459927.3   -145108.84        26334    24975.116    560341.57   -145138.59 
  193000    299.07059   -118.84813    460789.35   -145214.34    26297.551    24574.396    560642.73   -145237.76 
  193250    299.96839    11.352484    459704.12   -145369.53    26376.495    24908.125    560141.33   -145399.19 
  193500     301.3884    21.125292    458986.62   -145117.71    26501.358    24673.788    560660.38      -145148 
  193750    298.21632   -77.119595    458935.04      -145276    26222.434    24695.134    560450.16   -145303.33 
  194000    296.97722   -45.129388    460324.54   -145076.17    26113.479    24667.399    560686.97   -145107.95 
  194250    299.55779    13.422806    459240.96   -144875.98    26340.391    24735.149    560813.05   -144904.29 
  194500    298.47161   -31.489091     459810.2   -145027.25    26244.882    24716.641    560674.15    -145058.2 
  194750    298.40415   -12.952377    460640.76   -144895.89     26238.95    24672.848    560855.08   -144926.03 
  195000     298.6618   -16.300975    462565.62   -144983.49    26261.605    24851.223    560569.71   -145019.49 
  195250    302.29092    20.625245    459481.98   -144898.98    26580.717    24673.977    560846.36   -144927.12 
  195500    299.53197   -107.61254     460784.5   -144816.22     26338.12    24484.936    561134.04   -144849.67 
  195750    298.71554    59.769944       460386   -144973.87    26266.331    24800.731    560664.86   -145003.23 
  196000    298.48789   -11.872242    460208.04   -145023.96    26246.313    24716.439    560687.46   -145050.14 
  196250    299.47505   -34.923284     459607.9   -145083.97    26333.115    24656.017    560690.34   -145112.25 
  196500    298.50759    19.518767    460684.11   -144914.42    26248.046    24745.692    560762.43   -144943.22 
  196750    302.02398    161.85708    460727.05   -144790.35    26557.246     24950.24       560695   -144822.96 
  197000    301.54908   -118.39497    461783.48   -144737.87    26515.487    24448.014    561238.39   -144762.11 
  197250    300.01142    53.175695    460914.05   -144563.11    26380.279    24711.087       561142   -144588.96 
  197500    300.62924   -26.377415    461573.56   -144939.93    26434.604     24726.45    560744.43   -144966.59 
  197750    298.21117   -73.978558    460690.61   -144666.21    26221.981    24449.995    561302.78   -144691.72 
  198000    299.43489    67.888728    460552.38   -145226.14    26329.584    25010.307    560186.22   -145257.77 
  198250    302.44969    237.52118    459852.92   -144943.99    26594.678    25142.037    560345.76   -144970.15 
  198500    299.73063    42.682641    461139.03   -144766.05    26355.589    24703.935    560947.49   -144795.93 
  198750    298.47282    44.100605    461980.39      -144984    26244.988    24905.403     560524.1   -145015.87 
  199000    299.21249   -28.689377     461131.3   -145216.43    26310.028    24815.998    560383.46   -145243.51 
  199250     298.7282    15.152709    458863.42    -144973.5    26267.444    24709.432    560735.45   -145007.87 
  199500    301.28786   -24.781803    459076.58   -145020.51    26492.518    24542.582    560867.13    -145052.7 
  199750    301.14278    -35.06619    460142.09   -145033.92     26479.76    24677.864    560716.05    -145065.2 
  200000    298.01027   -4.9282469    460049.52   -144978.25    26204.316    24724.677    560691.71   -145007.11 
  200250    299.37034   -208.49057    461328.84   -144804.84    26323.908    24398.069    561223.97   -144836.25 
  200500    303.16734   -27.540419    459979.65    -145053.8    26657.782    24641.471    560720.83   -145084.03 
  200750    301.58341    191.66526    458675.73   -145100.88    26518.506     25051.31    560242.73   -145129.99 
  201000    299.58924     -47.5983    459710.03   -145026.49    26343.156    24597.431    560796.28   -145062.78 
  201250    299.36201   -80.778864    460955.55   -144935.85    26323.175    24583.247    560914.06    -144964.4 
  201500    299.13296    136.58144    458914.53    -144964.5    26303.035    24854.238    560596.37   -144993.47 
  201750    299.62264   -137.54636    460027.44    -144699.2    26346.093    24341.651    561372.99   -144725.79 
  202000    297.57534   -48.018909    458422.88   -145396.34    26166.072     24750.29    560276.41   -145425.31 
  202250    301.90119   -261.02878     461005.1   -145071.57    26546.448    24274.642    561064.26   -145106.56 
  202500    298.00262    121.64468    460274.69   -144722.07    26203.643    24840.476     560874.5   -144751.54 
  202750    299.11585   -3.5769961    459085.73   -145107.17    26301.531    24698.006    560621.09   -145134.35 
  203000    300.31309    99.930118    458551.36   -144657.11    26406.805    24695.682    561067.95   -144686.98 
  203250    299.24956    50.783294       459760   -145253.99    26313.288     24843.82    560333.77      -145283 
  203500    299.14735    12.345518    459665.91   -144958.54    26304.301    24690.561    560760.79   -144987.47 
  203750     300.2851    -46.40349    460433.96   -145032.34    26404.344    24623.444    560773.13   -145060.32 
  204000    301.59508   -83.707464    461315.97   -145229.83    26519.531    24692.313    560477.71    -145262.6 
  204250     301.3956   -33.130549     460795.9   -144642.78    26501.991    24514.765    561264.82   -144675.65 
  204500     300.4926    26.096643    460315.49   -144653.84     26422.59    24594.769    561160.43   -144688.41 
  204750    300.08638    80.873027     460713.3    -144949.7     26386.87    24917.149    560557.45   -144984.06 
  205000     297.8316    113.95939    460171.81   -144989.07    26188.605    25029.283    560401.87   -145027.48 
  205250    299.30348    -73.38726    461854.73   -145083.63    26318.029     24673.53    560669.99   -145113.12 
  205500    298.96839    29.539315    459895.59   -145158.97    26288.564    24795.401    560470.26   -145195.56 
  205750    301.42538   -129.29609     460561.1   -144816.92     26504.61    24380.858    561231.26   -144850.31 
  206000    299.89188   -72.689367     460785.4    -145408.4    26369.767     24763.67    560252.67   -145441.24 
  206250    299.46796  -0.69531871     458853.2   -145074.63    26332.492     24666.87    560669.28   -145112.27 
  206500    297.45292   -56.006943     459638.4   -145247.92    26155.307    24702.012    560473.99   -145289.05 
  206750    301.32821     74.20951    460057.25   -144910.42    26496.065    24824.403    560666.95   -144948.31 
  207000    300.33743    55.067299    460006.44   -144787.63    26408.946    24779.784    560839.42    -144828.8 
  207250    301.45327    13.844009    460342.61   -145139.08    26507.062    24804.312    560451.84   -145173.76 
  207500     301.4775    168.89188    460701.45   -145017.95    26509.192    25071.019    560323.76   -145055.96 
  207750    303.36969   -163.23658    462455.24   -144936.81    26675.575    24510.578    560975.82   -144971.01 
  208000    298.50017    39.321109     461330.6   -145188.34    26247.393    24986.902    560254.19   -145215.12 
  208250    299.79095   -83.843518    459672.55   -145024.25    26360.892    24582.971    560826.14   -145052.94 
  208500    301.20482    -141.6208    459840.52   -145009.45    26485.215    24421.251    560993.36   -145041.58 
  208750    299.87143   -60.205663    459960.27   -145179.19     26367.97    24659.543    560594.27   -145207.92 
  209000    298.62858   -20.769413    459152.03   -144929.69    26258.684     24569.03    560928.78   -144962.74 
  209250    299.92873    37.126734    460078.73   -145040.58    26373.008    24862.532     560511.7   -145072.43 
  209500    300.14553   -26.573046    460489.78    -144977.4    26392.071    24635.863     560802.3   -145010.84 
  209750    299.85518   -139.19114    462772.16   -144587.81    26366.541    24401.111    561440.89   -144616.73 
  210000     295.7382      165.089    461328.91   -144718.69    26004.531    25015.983    560674.49    -144745.2 
  210250    300.37084   -92.048556     461223.2   -144966.57    26411.883    24630.959    560813.23    -144998.9 
  210500    302.50619   -230.34978     461729.9   -144940.55    26599.646    24320.289    561158.92   -144973.84 
  210750    299.57149     34.12538    459442.21   -145130.82    26341.596    24801.468    560498.46   -145167.07 
  211000     299.9426   -141.34203    461401.61   -145059.67    26374.227    24548.203     560799.9   -145098.08 
  211250    299.50718   -68.352466    461246.69    -144867.5     26335.94    24555.831    560989.73   -144897.97 
  211500    299.00634    124.61382    460264.79   -144995.33    26291.901    24997.068    560424.21   -145013.88 
  211750    303.63056   -48.096489    460381.59   -144848.21    26698.514    24505.155    561089.22   -144880.75 
  212000     300.6995    119.03018    460172.55   -144917.58    26440.782    24883.533    560627.75   -144948.55 
  212250    301.05865   -131.67366    462217.63   -144743.01    26472.363    24481.978    561183.71   -144784.08 
  212500    297.99292    108.27344     460074.5    -144813.1     26202.79    24864.887    560742.24    -144845.7 
  212750    297.76048   -77.935639    460511.95   -145205.42    26182.352    24667.801    560548.13   -145240.45 
  213000    300.94172    300.78702    460208.39    -144781.5    26462.081     25240.27     560382.2   -144819.15 
  213250    301.71077    7.0232589    460896.14   -144908.91    26529.704    24852.178    560663.48   -144939.25 
  213500    297.82526     163.8037    457730.94   -145505.89    26188.048    25008.451    559911.45   -145535.39 
  213750    298.75273    9.8927226    460139.43   -144939.12    26269.601    24758.838    560730.95   -144973.04 
  214000    301.24331     118.2566    459746.25   -145011.46      26488.6    24884.951    560532.98   -145046.13 
  214250    300.82183   -86.801695    460813.62   -144883.34    26451.539    24621.112    560930.83    -144914.6 
  214500    299.56914    71.232507    458946.12   -144990.71    26341.389     24874.94    560565.72   -145016.84 
  214750    299.98616   -48.418618    459285.78    -144972.8    26378.057    24615.229    560836.63   -145000.23 
  215000    300.40024   -99.153465    459886.94   -144891.38    26414.468    24458.418    561049.05    -144928.5 
  215250    298.86238   -177.16466    460151.75    -144442.8    26279.243     24105.57    561879.16   -144474.67 
  215500    302.10628   -155.05476    460659.91   -144953.24    26564.482    24360.336    561103.12   -144979.57 
  215750    300.37755   -44.904902    460495.72   -144895.12    26412.473    24551.661    560978.11   -144928.47 
  216000    301.73012   -38.376355    461199.63   -145107.22    26531.405    24797.082    560529.87   -145135.01 
  216250    297.38578   -60.263279    460582.38    -144706.8    26149.404    24560.744    561143.15   -144736.38 
  216500    298.29896   -259.65355    462442.68   -144800.97      26229.7    24214.108    561387.35    -144827.9 
  216750    298.05478     199.3693    458500.95   -145099.65     26208.23    25064.593    560258.91   -145129.04 
  217000    301.81505    -51.80298    460926.96   -144958.93    26538.874    24569.579    560885.75   -144995.14 
  217250    300.26544   -46.772121    460928.56    -144842.8    26402.615    24656.903    560940.49    -144871.2 
  217500    299.00716     88.25814    459349.01   -145318.44    26291.974    24878.533    560227.53   -145352.53 
  217750    298.55294    47.614822    460042.27   -144697.79    26252.033    24668.576    561044.41   -144730.68 
  218000    301.17259   -7.7472793    459560.41   -145038.08    26482.382    24633.432    560749.16   -145069.96 
  218250    299.07072    130.14537    458836.97   -145058.83    26297.563     24935.01    560441.18    -145090.5 
  218500    297.19842    -78.79535    458739.48   -144906.79    26132.929    24471.295    561042.67    -144935.3 
  218750    301.98804     87.30837     459458.3   -144874.84    26554.085    24789.827    560763.61   -144905.92 
  219000    302.09962    255.14006    459936.82   -145146.43    26563.896     25202.36    560075.59   -145171.97 
  219250    299.43546   -37.571985    461633.39   -144777.25    26329.634     24674.03    560957.48   -144808.23 
  219500    301.01399   -172.13995    461925.86   -144815.33    26468.436    24424.635    561166.23   -144843.05 
  219750    299.23877   -13.760889    460297.44   -144610.74    26312.339    24572.118    561248.01   -144637.83 
  220000    300.48677   -57.327713    460196.69   -144986.12    26422.077     24564.82    560845.47   -145009.66 
  220250    301.12201   -85.634846    460280.07   -144883.47    26477.934    24484.167    561060.93   -144911.24 
  220500    300.28946     56.24601    460149.18   -144858.75    26404.727    24685.452     560885.5   -144883.38 
  220750    299.88962    12.564295    460217.27   -144992.42    26369.569    24679.662    560760.44   -145022.82 
  221000     300.8682    78.772281    461233.59      -144809    26455.616    24910.121    560697.53   -144843.29 
  221250     300.8298   -21.130603    461909.12   -144645.73     26452.24    24618.854    561157.18   -144674.03 
  221500     298.6562    62.672735    460544.13   -144928.07    26261.113    24932.563    560564.99   -144958.69 
  221750    300.74724   -130.26725    461608.37   -145083.33     26444.98    24566.942    560765.15   -145116.56 
  222000    299.74173    51.107892    459539.08   -145103.17    26356.564    24833.013    560500.69    -145133.3 
  222250    301.05463   -24.915357    460923.44   -144959.79    26472.009    24697.469    560770.76   -144991.17 
  222500    298.92614     106.6082    461175.04   -144945.29    26284.849    24998.469     560481.4   -144971.62 
  222750    301.44541    65.354659    462030.91   -144560.12    26506.371     24799.33    561039.36   -144596.61 
  223000    297.77201     153.1398    460097.58   -144712.94    26183.366    24910.819     560775.5   -144745.77 
  223250     296.3751    48.112972     459794.5    -145023.8    26060.534    24870.234    560538.61   -145049.78 
  223500    300.53356   -1.4668194    458080.45   -145176.15    26426.191     24672.79    560581.52   -145207.67 
  223750    299.89746   -27.084097    458862.51   -145071.85    26370.258    24621.836    560726.68   -145106.13 
  224000    299.48929   -247.25135    460208.03    -145092.4    26334.367     24285.65    561041.06   -145123.82 
  224250    297.43068     41.79937    459065.24   -145249.72    26153.352    24878.055     560298.7   -145276.94 
  224500    300.19559   -94.574664    459277.44   -145103.75    26396.473    24532.988    560791.97   -145131.32 
  224750    298.92952    201.12653    459173.97   -144744.97    26285.147    24988.891       560693   -144774.29 
  225000    300.59682   -109.90467    460486.77   -145049.02    26431.753    24538.842    560852.73   -145075.57 
  225250     303.1008   -127.17453    460998.58      -144948    26651.931    24442.081    561028.93   -144972.44 
  225500    299.65229    110.85883    460160.85    -144641.6    26348.701    24805.905    560963.47   -144672.55 
  225750    300.61407    53.308365    460533.51   -144943.93     26433.27    24819.177    560647.82   -144975.04 
  226000    300.17839   -13.233536    460930.84   -144627.96    26394.961    24570.159    561219.82   -144659.55 
  226250    298.33364     78.54375    460229.02   -144966.28     26232.75    24872.477    560588.34   -144990.93 
  226500    300.49484     62.25222    459941.44   -144877.22    26422.786    24806.124    560750.41   -144906.59 
  226750    300.30264   -37.746561    461002.04   -144854.36    26405.886    24642.361    560933.79   -144882.71 
  227000    299.90662     -30.9775    461016.73   -144951.32    26371.064    24672.448    560778.61   -144985.52 
  227250    301.65813     167.0136    459494.25   -144857.53    26525.076    24969.384    560595.54    -144887.7 
  227500     302.6086    134.17951    459987.83   -144665.18    26608.651    24811.213    560947.79   -144695.23 
  227750    298.29444    81.681323    460176.16   -144824.23    26229.303    24768.901    560838.11   -144855.32 
  228000    300.96787    110.80464     460415.2   -144790.73     26464.38    24845.194    560797.44   -144821.18 
  228250    299.48644    28.987478     460925.9   -145249.87    26334.117    24840.212    560342.08   -145281.17 
  228500    301.36135   -48.418804    461667.78   -145099.18     26498.98      24761.5    560567.11   -145125.75 
  228750    300.29366   -27.886481    459920.39   -145361.93    26405.096    24834.181    560237.15   -145390.79 
  229000    299.27494   -102.43064    460328.89   -145388.35     26315.52    24653.541    560384.47   -145419.41 
  229250    300.65921   -65.799872    460363.33   -144958.48    26437.239    24549.344    560912.89   -144985.55 
  229500    298.37787   -63.755217    460921.69   -144643.06    26236.639    24497.233    561274.07   -144674.38 
  229750    299.98313    66.131532    459853.23   -145212.21    26377.791    24918.862    560279.14    -145244.2 
  230000    297.76642     50.47005       460957   -144601.12    26182.874    24738.274    561067.63   -144628.22 
  230250    298.19668   -162.76261    461886.84   -145223.91    26220.707    24630.054    560569.18   -145253.79 
  230500    300.07895    59.630071    460854.51   -144965.38    26386.217    24819.612    560642.24   -144994.51 
  230750    299.22426    149.03125    459895.25   -144916.65    26311.063    24982.798    560522.65   -144943.52 
  231000    298.80439    87.787846    458873.63   -145458.68    26274.143     25021.17    559968.99   -145484.77 
  231250    300.40546    11.899854    460039.13   -144994.74    26414.928    24684.069     560746.7   -145019.38 
  231500    298.92601   -90.536657    460772.31   -145162.14    26284.837    24673.817    560600.63   -145187.36 
  231750    299.55835    229.98293    458316.16   -144923.77     26340.44    25051.252     560427.1   -144956.18 
  232000     298.4656   -62.363066     459966.5   -144771.76    26244.353    24499.968    561161.99   -144794.52 
  232250    297.90876   -161.58762    460109.94   -145089.27     26195.39    24451.622    560861.31   -145116.36 
  232500    298.28367    78.255605       459068   -144452.23    26228.357    24514.246    561457.01   -144483.28 
  232750    298.44393    36.764918    459194.39   -144693.81    26242.448     24645.69    561076.94   -144719.75 
  233000    300.90067    78.128977    459907.93   -144996.46    26458.472    24810.457    560620.64   -145022.21 
  233250    299.64174    18.522335     462154.4   -144695.51    26347.772    24748.468    560978.94   -144725.38 
  233500    301.53702   -21.655165    460347.01   -145357.58    26514.426    24859.071    560227.65   -145387.11 
  233750    300.00306   -1.4046179    458513.34   -145094.45    26379.544     24665.78    560675.29   -145120.16 
  234000    299.48036    56.177057    459274.69   -144967.18    26333.582    24816.792    560629.84   -144993.31 
  234250    299.25464   -6.3887851    459932.81   -145151.16    26313.734    24707.211    560569.82   -145177.51 
  234500    300.02756    262.63727    458318.17   -145136.83    26381.698      25140.6       560149   -145161.04 
  234750    300.08653     39.97861    459332.96   -145358.58    26386.883    24954.403    560119.74   -145386.43 
  235000    297.06717    8.3478457    460181.77   -145059.44    26121.388    24802.561     560574.3   -145086.29 
  235250    300.96024   -30.499878    460470.27   -145060.62     26463.71    24723.807    560638.24   -145081.75 
  235500    300.59798    47.402585    459404.64   -145237.22    26431.856     24835.24    560339.57   -145263.07 
  235750    300.73188   -64.402682    460639.03   -144805.18     26443.63    24528.536    561087.31   -144831.41 
  236000     300.1688   -88.316254    460228.58   -144918.51    26394.117    24491.434     561030.7   -144945.68 
  236250    298.18875    -298.4926    461597.53   -144708.61     26220.01    24167.801    561533.55   -144740.46 
  236500    299.03615    42.495225    459255.41   -144816.28    26294.522     24657.87     560953.1   -144843.62 
  236750    302.00045    -21.21372    458343.71    -144965.9    26555.176    24475.328    560982.15    -144992.2 
  237000    301.85194    21.575397    460420.89   -145017.53    26542.118     24749.92    560658.39   -145047.32 
  237250    301.83179   -8.5704158    460781.68   -145043.96    26540.346    24710.793    560660.93   -145077.09 
  237500    302.24188    58.946135    459921.24   -145045.56    26576.405    24797.688    560570.14   -145075.26 
  237750    299.04964    84.886186    460469.49   -144797.01    26295.709    24801.124    560825.94   -144827.07 
  238000    301.56459     234.0492    460693.79   -144872.51     26516.85    25145.535    560428.81   -144898.86 
  238250    297.40412     105.9731    461029.06   -145050.67    26151.016    25098.038    560248.83   -145082.75 
  238500    300.06315   -116.66679    460612.65   -144855.86    26384.828    24477.383    561092.08   -144885.67 
  238750    300.67118    13.826698     458850.1   -145313.02    26438.293    24754.949    560350.36      -145343 
  239000     299.4984    102.02884    458299.92   -144930.66    26335.168    24766.063    560728.77   -144959.31 
  239250    301.36387   -56.936245     459283.3   -145103.71    26499.201    24569.188    560748.25   -145134.79 
  239500    299.87729   -24.417139       460402   -144888.48    26368.485    24701.113    560823.97   -144921.67 
  239750     296.3665    43.840329    460296.36   -144784.51    26059.778    24709.691    560919.87   -144814.15 
  240000    300.75577    142.75891    460012.69   -144729.48     26445.73    24880.387    560798.11   -144757.92 
  240250     299.4978   -86.425778    461647.29   -144848.89    26335.116    24573.382    560999.27   -144878.52 
  240500    300.06738    14.327236    462485.66    -145047.2      26385.2    24967.166     560367.4   -145077.68 
  240750    300.98075   -47.638602    461097.53    -144753.6    26465.513    24543.432    561131.03   -144784.91 
  241000    300.76182      67.6701    460142.16   -144897.05    26446.262    24838.077    560681.44   -144926.35 
  241250     299.1797    4.0325974    459663.71   -145019.26    26307.145    24693.951    560720.69   -145049.63 
  241500     299.5479    134.46938    458743.88   -144989.85    26339.521    24940.261     560497.7   -145022.33 
  241750    300.96622    184.67905    459931.03   -144836.75    26464.235    24957.482    560633.95   -144867.83 
  242000    297.12276   -48.311485    460409.95   -145196.35    26126.277    24788.636    560433.15   -145227.42 
  242250    300.50942    -75.41037    461963.78   -144851.66    26424.069     24613.04    560965.92   -144882.54 
  242500    300.25968    265.50685    458732.75   -145003.27    26402.109    25180.235    560251.66    -145030.5 
  242750    299.57864   -101.75923    460870.13   -144777.56    26342.224    24433.692    561197.16   -144808.29 
  243000    296.52332   -8.8686189    460597.27   -144948.01    26073.567    24723.717    560747.98   -144980.78 
  243250    299.64764    117.10797    458961.56   -145073.08    26348.291    24927.471    560419.32    -145102.6 
  243500    300.64624   -55.751833    461456.69   -144914.21    26436.099    24654.157    560873.43   -144941.44 
  243750    299.79305    67.225458    460747.28   -145083.32    26361.077    24973.619    560379.38   -145120.19 
  244000    300.15893    52.918514    460103.29   -145075.23     26393.25    24850.383    560504.18   -145108.57 
  244250    297.24017   -138.92487    461993.95   -145104.41      26136.6    24602.911    560717.46   -145131.34 
  244500     299.1114    138.64875    458963.49   -144939.39    26301.139    24892.225    560578.92   -144973.18 
  244750    299.19653   -152.16221    460276.87   -144687.06    26308.625    24240.072    561494.71   -144723.97 
  245000    299.58547   -77.220442    461003.38   -145160.48    26342.825    24719.715    560533.33   -145195.39 
  245250    300.53611    -85.01712     460971.8   -144848.16    26426.415    24485.915    561070.48   -144874.53 
  245500    300.92088    16.734337    460933.38   -144837.83    26460.248     24718.49    560864.84   -144869.44 
  245750     301.0594    112.36975    460126.74   -144554.05    26472.429    24752.574    561109.74   -144581.42 
  246000    301.38921    95.173459    460317.58   -144843.48    26501.429    24839.917    560744.19   -144870.23 
  246250    300.40855    141.72539    459450.66   -144672.36    26415.199    24821.449    560926.74   -144704.17 
  246500    297.34324   -111.23711    459858.79   -145112.81    26145.663    24585.496     560731.9   -145146.64 
  246750    296.36318   -50.340053    460478.65   -144971.34    26059.486    24672.346    560766.56   -145004.16 
  247000    299.11564    90.977507    460615.31   -145187.06    26301.513    25007.885    560237.52   -145217.95 
  247250    300.49077     31.64475    458433.48   -145152.93    26422.429    24688.866    560586.88   -145181.33 
  247500    299.63258   -71.249523     459246.9   -144636.28    26346.967    24389.126    561384.13    -144667.7 
  247750    299.84405    -11.58207    459880.12    -144842.8    26365.562    24623.107    560938.86    -144876.7 
  248000    300.38796    31.715395     459648.7   -145240.47    26413.389    24855.737    560352.76    -145271.3 
  248250    301.82969    6.9107391    460230.01   -145053.81    26540.161    24737.578    560640.92   -145078.95 
  248500    300.72881    107.15066    459650.84   -144705.22     26443.36    24752.375    560975.19   -144736.17 
  248750    300.85182    -98.85369    460931.94   -144961.42    26454.176    24527.845    560947.45   -144981.87 
  249000    297.34862     212.4927    459453.54   -144853.16    26146.137    25087.572    560481.69   -144880.81 
  249250    297.51968   -92.830102    458537.46   -145209.78    26161.178    24541.646    560670.98   -145235.61 
  249500    300.34083     125.8886    458507.82   -144785.85    26409.244    24794.386    560834.61   -144820.48 
  249750    300.58428   -119.19841    459855.02   -145039.34    26430.651    24507.018    560892.14   -145066.89 
  250000    297.04929   -88.376452    461516.63   -144556.04    26119.816    24478.185    561389.15   -144584.54 
  250002    296.34953   -82.474836     461549.9   -144500.24    26058.286    24471.552    561450.57   -144527.09 
Loop time of 44732.1 on 1 procs (1 MPI x 1 OpenMP) for 100000 steps with 44200 atoms

Pair  time (%) = 32355.7 (72.3323)
Bond  time (%) = 1.00741 (0.00225209)
Kspce time (%) = 3580.72 (8.0048)
Neigh time (%) = 5819.35 (13.0094)
Comm  time (%) = 105.964 (0.236886)
Outpt time (%) = 1.70148 (0.00380372)
Other time (%) = 2867.61 (6.41062)

FFT time (% of Kspce) = 811.56 (22.6647)
FFT Gflps 3d (1d only) = 1.51619 2.97834

Nlocal:    44200 ave 44200 max 44200 min
Histogram: 1 0 0 0 0 0 0 0 0 0
Nghost:    69754 ave 69754 max 69754 min
Histogram: 1 0 0 0 0 0 0 0 0 0
Neighs:    1.45814e+07 ave 1.45814e+07 max 1.45814e+07 min
Histogram: 1 0 0 0 0 0 0 0 0 0

Total # of neighbors = 14581435
Ave neighs/atom = 329.897
Ave special neighs/atom = 2.00851
Neighbor list builds = 11381
Dangerous builds = 0
write_restart   confout-2.data
PPPM initialization ...
  G vector (1/distance) = 0.263116
  grid = 90 25 25
  stencil order = 5
  estimated absolute RMS force accuracy = 0.0403477
  estimated relative force accuracy = 0.000121506
  using double precision FFTs
  3d grid and FFT values/proc = 97280 56250
