LAMMPS (24 Apr 2013)
WARNING: OMP_NUM_THREADS environment is not set. (../comm.cpp:100)
  using 1 OpenMP thread(s) per MPI task
# LAMMPS 2005 MD Simulation Parameters - Generated by XenoView
# Structure file "C:\Users\laflij\Dropbox\Xenoview\34m.lmp"
# Source force field file pcff_d.frc

# Define units and force field
units		real
atom_style	full
boundary	p p p
pair_style	lj/class2/coul/long 7 10
bond_style      class2
angle_style     class2
dihedral_style  class2
improper_style  class2
kspace_style	pppm 0.0001

pair_modify mix sixthpower

# Read system data
read_data	100cPE.data
  2 = max bonds/atom
  6 = max angles/atom
  18 = max dihedrals/atom
  4 = max impropers/atom
  orthogonal box = (-75 -20 -20) to (75 20 20)
  1 by 1 by 1 MPI processor grid
  10337 atoms
  6992 bonds
  3950 angles
  900 dihedrals
  404 impropers
  4 = max # of 1-2 neighbors
  6 = max # of 1-3 neighbors
  12 = max # of 1-4 neighbors
  16 = max # of special neighbors

# Energy minimization (polymer initially stretched)
minimize 1.0e-16 1.0e-16 10000 100000
WARNING: Resetting reneighboring criteria during minimization (../min.cpp:173)
PPPM initialization ...
  G vector (1/distance) = 0.253944
  grid = 60 20 20
  stencil order = 5
  estimated absolute RMS force accuracy = 0.0318194
  estimated relative force accuracy = 9.58232e-05
  using double precision FFTs
  3d grid and FFT values/proc = 43940 24000
Memory usage per processor = 41.7394 Mbytes
Step Temp E_pair E_mol TotEng Press 
       0            0   -12140.863   -125.20942   -12266.072   -3928.6603 
    3154            0   -36736.886    1156.0225   -35580.864   -1237.4449 
Loop time of 840.805 on 1 procs (1 MPI x 1 OpenMP) for 3154 steps with 10337 atoms

Minimization stats:
  Stopping criterion = linesearch alpha is zero
  Energy initial, next-to-last, final = 
        -12266.0724692     -35580.8636011     -35580.8636011
  Force two-norm initial, final = 540.332 8.35509
  Force max component initial, final = 110.786 2.33501
  Final line search alpha, max atom move = 1.59541e-10 3.72529e-10
  Iterations, force evaluations = 3154 12085

Pair  time (%) = 704.702 (83.8128)
Bond  time (%) = 25.6814 (3.05439)
Kspce time (%) = 102.91 (12.2394)
Neigh time (%) = 2.63769 (0.313709)
Comm  time (%) = 2.14295 (0.254868)
Outpt time (%) = 0 (0)
Other time (%) = 2.73126 (0.324839)

FFT time (% of Kspce) = 6.45944 (6.2768)
FFT Gflps 3d (1d only) = 2.36384 4.60686

Nlocal:    10337 ave 10337 max 10337 min
Histogram: 1 0 0 0 0 0 0 0 0 0
Nghost:    18774 ave 18774 max 18774 min
Histogram: 1 0 0 0 0 0 0 0 0 0
Neighs:    1.90304e+06 ave 1.90304e+06 max 1.90304e+06 min
Histogram: 1 0 0 0 0 0 0 0 0 0

Total # of neighbors = 1903040
Ave neighs/atom = 184.1
Ave special neighs/atom = 2.29119
Neighbor list builds = 45
Dangerous builds = 0

# Write initial structure out, as post relaxation
dump            icrd all custom 5 system.lammpstrj id mol type x y z ix iy iz
dump_modify     icrd sort id
run             1
WARNING: No fixes defined, atoms won't move (../verlet.cpp:54)
PPPM initialization ...
  G vector (1/distance) = 0.253944
  grid = 60 20 20
  stencil order = 5
  estimated absolute RMS force accuracy = 0.0318194
  estimated relative force accuracy = 9.58232e-05
  using double precision FFTs
  3d grid and FFT values/proc = 43940 24000
Memory usage per processor = 49.5461 Mbytes
Step Temp E_pair E_mol TotEng Press 
    3154            0   -36736.886    1156.0225   -35580.864   -1237.4449 
    3155            0   -36736.886    1156.0225   -35580.864   -1237.4449 
Loop time of 0.0900202 on 1 procs (1 MPI x 1 OpenMP) for 1 steps with 10337 atoms

Pair  time (%) = 0.059906 (66.5473)
Bond  time (%) = 0.00219989 (2.44377)
Kspce time (%) = 0.00859904 (9.55235)
Neigh time (%) = 0 (0)
Comm  time (%) = 0.0001688 (0.187514)
Outpt time (%) = 0.019109 (21.2275)
Other time (%) = 3.74317e-05 (0.0415815)

FFT time (% of Kspce) = 0.00204355 (23.7648)
FFT Gflps 3d (1d only) = 2.36901 4.61001

Nlocal:    10337 ave 10337 max 10337 min
Histogram: 1 0 0 0 0 0 0 0 0 0
Nghost:    18767 ave 18767 max 18767 min
Histogram: 1 0 0 0 0 0 0 0 0 0
Neighs:    1.90398e+06 ave 1.90398e+06 max 1.90398e+06 min
Histogram: 1 0 0 0 0 0 0 0 0 0

Total # of neighbors = 1903985
Ave neighs/atom = 184.191
Ave special neighs/atom = 2.29119
Neighbor list builds = 0
Dangerous builds = 0

# Reset the timestep
undump          icrd
reset_timestep  0

# Timestep and Neighbour searching
timestep	.25
neighbor	2.0 bin
neigh_modify	every 1 delay 0 check yes


# Computes
#compute rdf all rdf 100 1 1 1 2 2 2
#compute msd all msd com yes

# Fixes
fix		1 all shake 0.0001 20 0 b 3 a 4
  0 = # of size 2 clusters
  0 = # of size 3 clusters
  0 = # of size 4 clusters
  3344 = # of frozen angles
fix		2 all npt temp 300.0 300.0 100.0 iso 1.0 1.0 100.0
#fix		 rdf all ave/time 1 500000 500000 c_rdf file rdf.xvg mode vector
#fix		 msd all ave/time 1 500000 500000 c_msd file msd.xvg mode vector

# Initial velocity
velocity	all create 300 432567 dist uniform

# Write out thermodynamic information
thermo_style    custom step temp press vol pe ke evdwl ecoul epair
thermo	        50

# Write out trajectory
dump            cxtc all xtc 50 traj-0.xtc

# Write out velocity
#dump 		 1 all custom 1 vel_npt.txt vx vy vz

# Checkpoint files
#restart        5000 state_cpt-*.data

# Final run command
run             5000
PPPM initialization ...
  G vector (1/distance) = 0.253944
  grid = 60 20 20
  stencil order = 5
  estimated absolute RMS force accuracy = 0.0318194
  estimated relative force accuracy = 9.58232e-05
  using double precision FFTs
  3d grid and FFT values/proc = 43940 24000
Memory usage per processor = 52.4101 Mbytes
Step Temp Press Volume PotEng KinEng E_vdwl E_coul E_pair 
       0          300   -684404.72       240000    -37150.55    6252.5472    6208.0894    117219.45   -36736.886 
      50    68.065983    885.57304    236115.42   -31875.346    1418.6192     6531.662    121917.14   -31529.662 
     100      105.844    452.36563    237806.32   -32648.631     2205.982    6379.7294    121438.87   -32337.969 
     150    84.196435   -96.497749    240754.15   -32166.349    1754.8073     5653.387    122649.33     -31877.5 
     200    90.709262   -640.87294    241662.97   -32245.972    1890.5465    5167.0779    123036.56   -31912.768 
     250    94.352945   -566.61751    239443.61   -32293.979    1966.4875    5192.4678    122955.24   -31986.807 
     300    93.138492   -281.32654    236280.62   -32243.829     1941.176    5469.2505    122747.34   -31940.313 
     350    94.718421    8.6999641     234107.1   -32235.352    1974.1046    5629.7909     122564.1    -31943.33 
     400    100.35662   -56.503634    233036.56   -32301.501     2091.615    5551.8753    122634.92   -31956.098 
     450    97.586706   -97.424771     232129.4   -32188.994    2033.8849    5405.5484    122910.67   -31846.551 
     500    100.91511   -123.99241    230968.78   -32201.664     2103.255    5339.1353    122938.79   -31875.549 
     550    100.13599   -156.02896    229543.49   -32127.725    2087.0166    5325.6823    122975.15   -31845.211 
     600    103.99569   -94.989425    227993.69   -32148.877    2167.4599    5328.9409    122992.49    -31849.36 
     650    105.59677   -203.82871    226683.49   -32119.633    2200.8292    5260.5753    123083.28   -31823.574 
     700    106.73873   -183.04205    225290.07   -32079.831    2224.6297     5196.653    123179.69   -31773.445 
     750    109.53317    -227.1524    223908.97   -32072.178     2282.871    5144.0287    123234.41   -31788.446 
     800    113.12261   -178.93123     222384.8   -32080.452    2357.6815    5130.6604    123273.47   -31774.474 
     850     115.3494   -143.55437    220931.25   -32056.869    2404.0919    5100.6943    123315.96   -31750.266 
     900    119.12056   -159.07605    219575.49   -32061.435    2482.6898    5061.3759    123357.95   -31750.532 
     950    120.28712   -87.205119    218164.65   -32010.708    2507.0029    5033.8576     123397.8   -31746.054 
    1000    120.98532   -159.48149    216875.06   -31948.842    2521.5547     4976.504    123512.87   -31686.353 
    1050    125.02791   -110.88551    215472.54    -31953.91    2605.8097    4964.1235    123527.99    -31692.97 
    1100    128.60547   -196.31464    214220.75    -31945.39    2680.3725    4930.7919    123600.62   -31664.457 
    1150     129.8503   -182.10008    212933.13   -31887.153    2706.3171    4894.5126    123675.41    -31617.37 
    1200    134.06194    -222.2535    211693.86   -31888.979    2794.0954    4845.4091    123715.63   -31616.398 
    1250    136.19816   -210.39185    210375.08   -31845.422    2838.6182    4812.3282    123804.32   -31575.828 
    1300    139.45446   -121.36346    209060.28   -31824.287    2906.4853    4795.5306    123870.02   -31544.087 
    1350    142.85251   -148.31076    207894.12    -31801.06    2977.3068    4767.6455     123887.3   -31543.271 
    1400    144.13165   -52.518977    206694.22   -31733.203    3003.9664    4748.7165    123956.55   -31485.462 
    1450    145.72217   -126.41597    205661.99   -31667.948    3037.1157    4699.1139    124083.31   -31419.878 
    1500    151.67167   -125.90409    204549.92   -31691.904    3161.1143    4677.4742    124105.71   -31431.956 
    1550    153.66866   -175.31024    203473.55    -31631.33    3202.7352    4641.8208    124183.14   -31376.515 
    1600    156.11729   -190.77969    202333.54     -31578.7    3253.7692    4607.0531       124269    -31329.17 
    1650    161.04003    -161.6304    201168.53    -31576.13     3356.368    4587.5615    124315.12   -31320.875 
    1700    162.85471   -194.16275    200066.48   -31507.438    3394.1891    4566.4784    124416.58   -31248.276 
    1750    167.22026   -76.768063    198943.97    -31488.87    3485.1753    4564.3003    124416.93    -31241.23 
    1800    167.39217   -141.89235    197996.16   -31380.089    3488.7582    4510.0074    124552.51    -31165.78 
    1850    172.01088   -84.612457    196972.31    -31362.79    3585.0205    4503.2988    124598.77   -31141.762 
    1900    175.58359   -119.08887    196024.36   -31322.195    3659.4823     4472.302    124675.77   -31090.879 
    1950    183.17154   -186.14427    195054.05   -31364.186    3817.6291    4418.6032    124684.96    -31117.83 
    2000    180.89744   -115.46162    193971.66   -31198.585    3770.2327    4370.2045    124879.97   -30981.272 
    2050    187.66278   -158.05552    192946.84   -31220.465    3911.2345    4365.9633    124886.71   -30992.924 
    2100    188.61837   -57.388281    191947.99   -31120.123    3931.1509    4345.3465    125001.01   -30899.724 
    2150    195.05823   -144.80965    191125.43   -31129.663    4065.3692    4276.3526     125081.3   -30891.029 
    2200    195.54627   -111.29085    190196.49   -31016.653     4075.541    4225.3308    125214.75   -30812.577 
    2250    198.30507   -115.66996    189254.01   -30948.473    4133.0393    4178.7854    125320.28   -30749.082 
    2300     202.6389   -178.34746    188288.02   -30912.813    4223.3642     4124.757    125394.83   -30729.922 
    2350    205.84074   -127.10056    187254.34    -30851.28    4290.0965    4088.1847    125530.73   -30642.024 
    2400    210.28149   -190.67309    186345.02   -30816.391    4382.6498    4057.3226    125594.26   -30610.151 
    2450    212.37974   -116.01537    185434.58    -30730.52    4426.3812    4015.7645    125712.09   -30528.787 
    2500    216.00941   -147.19116    184636.49   -30676.222      4502.03    3908.0607    125875.44   -30482.724 
    2550    221.51418   -158.09561    183759.82   -30659.996    4616.7595    3835.1153    125983.61   -30454.764 
    2600    223.14946   -61.676986    182782.71   -30563.913    4650.8417    3820.8967    126100.26   -30356.568 
    2650    224.19818   -50.600445    181915.92   -30455.536    4672.6989    3797.7503    126205.55   -30268.082 
    2700    230.61907   -21.061994    181165.54   -30457.021    4806.5221    3741.3306    126244.78   -30285.602 
    2750    233.61223   -115.63877    180522.76    -30384.05    4868.9049     3645.709    126395.38   -30237.438 
    2800    235.44166   -162.35547    179757.16   -30289.939    4907.0335    3597.5118    126557.46   -30119.647 
    2850     239.7746   -104.33699    178948.75    -30247.26      4997.34    3587.1291    126608.95   -30077.197 
    2900    245.82399    -166.3276    178229.97   -30239.194    5123.4203    3557.0516    126677.95   -30051.822 
    2950    245.20757   -25.508866     177532.5   -30094.847    5110.5729    3510.8139    126842.31   -29931.525 
    3000    249.87206    -136.4069     176995.8   -30060.755    5207.7894    3433.3694    126956.05   -29884.092 
    3050    252.34155   -51.953745    176315.58   -29980.999    5259.2582    3410.2006    127050.47    -29819.72 
    3100    253.17369    -10.60082    175676.82   -29866.241    5276.6014    3387.1799    127200.82   -29699.173 
    3150    255.39094   -48.983368    175093.66   -29783.084     5322.813    3328.1842    127311.44    -29648.13 
    3200    260.22527   -42.223255    174496.77    -29753.58    5423.5692    3258.6201    127414.28   -29608.215 
    3250    263.78268   -183.96251    173835.79   -29698.659    5497.7122    3203.5521    127525.51   -29556.247 
    3300    265.89587    1.9056239    173007.47   -29617.525    5541.7549    3203.7376    127617.63   -29468.386 
    3350     269.5717   -103.45543    172438.92   -29569.287    5618.3659    3169.2656    127690.98   -29418.337 
    3400    272.62666   -37.716617    171957.63   -29508.611    5682.0368    3130.7451    127792.63   -29362.688 
    3450    273.40734   -101.45013    171623.51   -29403.661    5698.3077    3002.6321    128034.35   -29253.171 
    3500    277.62202   -180.16774    171191.14   -29370.179    5786.1493    2931.3277    128121.33   -29236.557 
    3550    280.28606    13.540407    170539.35   -29308.153    5841.6726    2915.8569    128196.55   -29170.075 
    3600    282.41277   -80.602498    169965.71   -29236.684    5885.9973    2891.4261    128284.64   -29107.446 
    3650    285.54158    124.63506    169354.22   -29190.349    5951.2074    2902.6788    128334.36   -29051.261 
    3700    286.19057   -0.8869962    169048.46   -29094.327    5964.7334    2841.0777    128483.73   -28958.205 
    3750    289.65828   -63.924926    168766.31    -29057.79    6037.0069    2752.4115    128615.15   -28912.708 
    3800    291.75646   -85.729681    168410.86   -28998.471    6080.7368     2706.298    128718.02   -28861.697 
    3850     291.9858   -135.70948    167991.51   -28902.543    6085.5166    2697.0321    128812.67   -28769.574 
    3900    289.72407    70.605021    167542.45    -28761.52     6038.378    2751.7055    128880.73   -28645.696 
    3950    292.67813   -62.149541    167425.87   -28727.374    6099.9461     2658.628    129028.31   -28597.693 
    4000    292.89899    -76.16146    167274.49   -28637.174    6104.5492    2551.7432    129209.28   -28522.029 
    4050    293.58388   -81.697747     166919.9   -28561.794    6118.8236    2520.4374    129307.76    -28446.15 
    4100    296.05666    33.480399    166349.25   -28527.645    6170.3608    2540.6768    129319.27   -28422.287 
    4150    303.96569     54.60834    165825.24   -28607.883    6335.1994    2583.8037    129200.62   -28500.183 
    4200    303.73217    10.091526    165435.88   -28523.214    6330.3324    2566.2653    129321.33   -28403.402 
    4250    308.19629    -18.52813    165141.29   -28544.147    6423.3727    2521.0091    129359.53   -28417.151 
    4300    306.21615   -116.12906       164903    -28435.79     6382.103    2457.7681    129527.92   -28314.049 
    4350     307.9419   -94.396275    164553.27   -28410.738    6418.0709    2444.4919    129543.94   -28302.748 
    4400    308.27306   -42.751508    164188.73   -28364.443    6424.9729    2460.4808     129569.2   -28255.581 
    4450    307.41086   -41.359019    163875.04   -28299.746    6407.0031    2424.9148    129654.84   -28206.235 
    4500    305.18887    58.050258    163620.13   -28211.507    6360.6927    2381.0437    129793.99   -28106.045 
    4550    306.81937    -95.15756    163456.05   -28207.456    6394.6753     2329.824    129834.48   -28112.853 
    4600    310.36976    44.089153    163082.62   -28249.608    6468.6718     2346.813    129786.76   -28148.909 
    4650    309.30151   -64.705534     162678.8   -28202.323    6446.4076     2295.665    129885.87   -28102.646 
    4700    312.34788   -1.5100578    162101.01    -28247.94    6509.8994    2307.0127    129862.52    -28123.32 
    4750    308.55739    87.290207    161565.23    -28160.22    6430.8988    2315.1461    129941.66   -28039.859 
    4800    310.42514   -43.790616     161290.8   -28194.272    6469.8261    2320.8156    129907.46   -28080.792 
    4850    309.19331     -7.48162    161099.97   -28168.549    6444.1525    2305.9935    129920.87   -28073.418 
    4900    310.41328   -248.09547    160965.54   -28199.403     6469.579    2225.6471    129965.46   -28106.919 
    4950     308.0873   -137.12655    160492.61    -28167.64    6421.1013    2207.5304    130004.51   -28080.594 
    5000    309.33994    -106.0251    159838.62   -28217.032    6447.2086    2249.9855    129925.37   -28132.864 
Loop time of 373.574 on 1 procs (1 MPI x 1 OpenMP) for 5000 steps with 10337 atoms

Pair  time (%) = 266.466 (71.329)
Bond  time (%) = 6.05508 (1.62085)
Kspce time (%) = 43.0394 (11.521)
Neigh time (%) = 5.23764 (1.40204)
Comm  time (%) = 0.976144 (0.261299)
Outpt time (%) = 0.106198 (0.0284277)
Other time (%) = 51.6931 (13.8374)

FFT time (% of Kspce) = 10.2936 (23.9166)
FFT Gflps 3d (1d only) = 2.35156 4.53401

Nlocal:    10337 ave 10337 max 10337 min
Histogram: 1 0 0 0 0 0 0 0 0 0
Nghost:    22431 ave 22431 max 22431 min
Histogram: 1 0 0 0 0 0 0 0 0 0
Neighs:    2.73142e+06 ave 2.73142e+06 max 2.73142e+06 min
Histogram: 1 0 0 0 0 0 0 0 0 0

Total # of neighbors = 2731417
Ave neighs/atom = 264.237
Ave special neighs/atom = 2.29119
Neighbor list builds = 70
Dangerous builds = 0
write_restart   confout-0.data
PPPM initialization ...
  G vector (1/distance) = 0.2545
  grid = 50 18 18
  stencil order = 5
  estimated absolute RMS force accuracy = 0.0379108
  estimated relative force accuracy = 0.000114167
  using double precision FFTs
  3d grid and FFT values/proc = 34375 16200
