LAMMPS (24 Apr 2013)
WARNING: OMP_NUM_THREADS environment is not set. (../comm.cpp:100)
  using 1 OpenMP thread(s) per MPI task
# LAMMPS 2005 MD Simulation Parameters - Generated by XenoView
# Structure file "C:\Users\laflij\Dropbox\Xenoview\34m.lmp"
# Source force field file pcff_d.frc

# Define units and force field
units		real
atom_style	full
boundary	p p p
kspace_style	pppm 0.0001

# Read system data
read_data	confout-0.data
