ITEM: TIMESTEP
3155
ITEM: NUMBER OF ATOMS
10337
ITEM: BOX BOUNDS pp pp pp
-75 75
-20 20
-20 20
ITEM: ATOMS id mol type x y z ix iy iz 
1 1 1 33.0598 -1.08367 -2.91512 0 0 0 
2 1 1 -9.79091 -0.657555 -0.372334 0 0 0 
3 1 1 60.4422 -3.33167 -4.15856 0 0 0 
4 1 1 48.3738 -0.849144 -2.14149 0 0 0 
5 1 1 62.8631 -3.28958 -3.53936 0 0 0 
6 1 1 53.4362 -1.19184 -2.11751 0 0 0 
7 1 1 50.906 -1.0174 -2.11558 0 0 0 
8 1 1 0.350308 -1.30067 -0.584071 0 0 0 
9 1 1 55.6986 -2.96916 -3.29612 0 0 0 
10 1 1 20.4768 1.0062 -0.037045 0 0 0 
11 1 1 50.8147 -2.47957 -3.11836 0 0 0 
12 1 1 33.187 0.369728 -1.90325 0 0 0 
13 1 1 53.2902 -2.63311 -3.13951 0 0 0 
14 1 1 55.9447 -1.47103 -2.37767 0 0 0 
15 1 1 58.4101 -1.72419 -2.71423 0 0 0 
16 1 1 17.9228 0.810538 0.0889038 0 0 0 
17 1 1 -14.7781 -0.863372 -0.986871 0 0 0 
18 1 1 -64.2279 -0.472057 -1.53955 0 0 0 
19 1 1 0.284968 0.0813395 0.526375 0 0 0 
20 1 1 48.303 -2.30491 -3.15443 0 0 0 
21 1 1 60.8416 -1.91665 -3.16847 0 0 0 
22 1 2 53.3497 -2.29128 -2.09253 0 0 0 
23 1 2 48.3055 -1.94958 -2.11019 0 0 0 
24 1 2 50.8316 -2.11722 -2.07649 0 0 0 
25 1 2 60.7484 -3.01553 -3.14805 0 0 0 
26 1 1 25.3772 -0.241655 -2.00242 0 0 0 
27 1 1 58.0847 -3.20665 -3.63282 0 0 0 
28 1 1 -0.991211 -1.26247 2.17798 0 0 0 
29 1 1 -62.4981 1.06526 -2.48344 0 0 0 
30 1 2 0.326097 -1.02014 0.482716 0 0 0 
31 1 1 -42.6805 -1.15903 -1.93332 0 0 0 
32 1 1 62.0904 -4.73268 -2.86908 0 0 0 
33 1 1 49.4546 -3.60991 -1.31495 0 0 0 
34 1 2 33.1256 -0.731029 -1.87211 0 0 0 
35 1 2 55.8427 -2.56513 -2.27935 0 0 0 
36 1 1 23.0791 1.08808 -0.329449 0 0 0 
37 1 1 31.7456 -2.24289 -1.11125 0 0 0 
38 1 2 58.3108 -2.81934 -2.62451 0 0 0 
39 1 2 -0.936251 -1.59697 1.12818 0 0 0 
40 1 2 31.8651 -1.14853 -1.10931 0 0 0 
41 1 1 30.4259 -0.810843 -2.73066 0 0 0 
42 1 1 54.4949 -3.97034 -1.32187 0 0 0 
43 1 1 35.7497 0.218137 -1.97198 0 0 0 
44 1 1 57.0461 -4.22549 -1.55538 0 0 0 
45 1 1 -29.9414 -1.99873 -2.48287 0 0 0 
46 1 1 59.5759 -4.49955 -2.07376 0 0 0 
47 1 2 49.5275 -2.51544 -1.38051 0 0 0 
48 1 1 51.9865 -3.77949 -1.29585 0 0 0 
49 1 1 34.3603 -2.38879 -1.1678 0 0 0 
50 1 1 2.78984 -1.23413 -0.633711 0 0 0 
51 1 2 57.1369 -3.1404 -1.69594 0 0 0 
52 1 2 34.3938 -1.29015 -1.22015 0 0 0 
53 1 2 59.6463 -3.40677 -2.15886 0 0 0 
54 1 1 -0.912537 -2.69673 1.15404 0 0 0 
55 1 2 62.1067 -3.63573 -2.81752 0 0 0 
56 1 2 54.6028 -2.88338 -1.43937 0 0 0 
57 1 1 38.3269 0.0289889 -1.96599 0 0 0 
58 1 1 -12.2711 -0.798156 -0.706353 0 0 0 
59 1 2 52.0624 -2.68526 -1.36355 0 0 0 
60 1 1 31.9343 -0.856485 -0.0499452 0 0 0 
61 1 1 22.9102 -0.125304 -1.6152 0 0 0 
62 1 1 34.4862 -0.944286 -0.178957 0 0 0 
63 1 1 40.6462 -1.70362 -3.1844 0 0 0 
64 1 1 54.718 -2.5004 -0.41624 0 0 0 
65 1 1 57.3187 -2.74025 -0.689349 0 0 0 
66 1 1 49.5356 -2.17205 -0.336661 0 0 0 
67 1 1 52.0934 -2.34022 -0.320922 0 0 0 
68 1 1 59.8947 -3.05948 -1.147 0 0 0 
69 1 1 -7.11246 -1.96154 -0.979308 0 0 0 
70 1 1 62.4658 -3.36331 -1.81591 0 0 0 
71 1 1 25.6627 0.997304 -0.761663 0 0 0 
72 1 1 45.7777 -2.15062 -3.20504 0 0 0 
73 1 1 -2.19449 -1.48001 -0.653483 0 0 0 
74 1 1 17.9756 -0.372223 -1.23344 0 0 0 
75 1 1 45.8341 -0.699606 -2.18467 0 0 0 
76 1 1 -9.62602 -2.20207 -1.23168 0 0 0 
77 1 1 20.461 -0.178067 -1.35988 0 0 0 
78 1 1 -12.1659 -2.39432 -1.47628 0 0 0 
79 1 1 43.3287 -0.540229 -2.21168 0 0 0 
80 1 1 38.1327 -1.33927 -3.07706 0 0 0 
81 1 1 2.8707 0.131509 0.496157 0 0 0 
82 1 1 -30.002 -0.456283 -1.60894 0 0 0 
83 1 1 40.8442 -0.286976 -2.13194 0 0 0 
84 1 1 28.1692 0.792913 -1.23046 0 0 0 
85 1 1 -45.1595 -1.13252 -1.91802 0 0 0 
86 1 1 35.6524 -1.20206 -3.01499 0 0 0 
87 1 1 30.6293 0.57143 -1.66313 0 0 0 
88 1 1 -14.7134 -2.48874 -1.69876 0 0 0 
89 1 2 18.0064 -0.266036 -0.135901 0 0 0 
90 1 2 45.7746 -1.80072 -2.15969 0 0 0 
91 1 1 -62.2915 1.83704 -0.898936 0 0 0 
92 1 1 -4.80574 -0.253315 0.22333 0 0 0 
93 1 2 38.2037 -1.06605 -2.01148 0 0 0 
94 1 2 23.0532 0.00373614 -0.528932 0 0 0 
95 1 1 -2.30909 -0.0639588 0.380414 0 0 0 
96 1 2 35.669 -0.88185 -1.96286 0 0 0 
97 1 2 20.5301 -0.0717851 -0.263904 0 0 0 
98 1 1 -7.31004 -0.464214 -0.0469976 0 0 0 
99 1 1 43.2171 -1.98743 -3.23454 0 0 0 
100 1 2 30.584 -0.528022 -1.67901 0 0 0 
101 1 2 -2.2122 -1.16012 0.399832 0 0 0 
102 1 1 27.9125 -0.511322 -2.40869 0 0 0 
103 1 1 46.9309 -3.45447 -1.36617 0 0 0 
104 1 2 25.5659 -0.0888626 -0.926514 0 0 0 
105 1 1 -4.63379 -1.71368 -0.770294 0 0 0 
106 1 2 43.2438 -1.63976 -2.18828 0 0 0 
107 1 1 -64.6867 1.22965 -1.30522 0 0 0 
108 1 2 28.0726 -0.300231 -1.33823 0 0 0 
109 1 1 1.66355 -2.60899 1.12754 0 0 0 
110 1 2 -12.268 -1.8827 -0.504484 0 0 0 
111 1 2 40.7195 -1.38294 -2.13154 0 0 0 
112 1 1 19.4194 -1.87602 0.191778 0 0 0 
113 1 2 -9.75039 -1.75122 -0.232572 0 0 0 
114 1 1 -37.5159 -2.48755 -2.97445 0 0 0 
115 1 2 2.85319 -0.969647 0.435684 0 0 0 
116 1 1 39.2925 -2.83811 -1.39337 0 0 0 
117 1 1 5.42743 0.0893614 0.361237 0 0 0 
118 1 2 -14.7948 -1.9397 -0.745727 0 0 0 
119 1 1 44.4 -3.32165 -1.44752 0 0 0 
120 1 1 41.8343 -3.1261 -1.47035 0 0 0 
121 1 2 19.3461 -0.796246 0.38453 0 0 0 
122 1 2 -30.0032 -1.55133 -1.47722 0 0 0 
123 1 1 -13.5988 -3.34921 0.390295 0 0 0 
124 1 1 36.8344 -2.56241 -1.24674 0 0 0 
125 1 2 1.61338 -1.5099 1.15332 0 0 0 
126 1 2 36.9139 -1.46758 -1.28851 0 0 0 
127 1 2 -62.5409 0.884596 -1.39593 0 0 0 
128 1 1 4.16733 -2.63203 0.964197 0 0 0 
129 1 1 29.2613 -2.06706 -0.912255 0 0 0 
130 1 1 -40.1975 -1.11505 -2.01587 0 0 0 
131 1 2 46.9976 -2.35973 -1.42759 0 0 0 
132 1 2 -7.23959 -1.56171 0.0410658 0 0 0 
133 1 1 26.7585 -1.8782 -0.65051 0 0 0 
134 1 2 41.944 -2.03275 -1.4801 0 0 0 
135 1 1 -31.3167 -3.07135 -0.625614 0 0 0 
136 1 2 39.4282 -1.74738 -1.39292 0 0 0 
137 1 1 24.3262 -1.72386 -0.241041 0 0 0 
138 1 2 -4.7291 -1.35295 0.268043 0 0 0 
139 1 1 21.8913 -1.72311 0.0656843 0 0 0 
140 1 2 44.4694 -2.22569 -1.48135 0 0 0 
141 1 1 -27.4214 -0.495213 -1.47189 0 0 0 
142 1 1 7.90683 0.0715612 0.185037 0 0 0 
143 1 1 1.62841 -1.2441 2.21841 0 0 0 
144 1 1 -32.4467 -2.14838 -2.64143 0 0 0 
145 1 1 46.9969 -2.02066 -0.382145 0 0 0 
146 1 2 -63.9576 0.457388 -1.01387 0 0 0 
147 1 1 44.4779 -1.91284 -0.427653 0 0 0 
148 1 2 4.15772 -1.5321 1.00853 0 0 0 
149 1 1 41.9962 -1.74654 -0.420019 0 0 0 
150 1 1 -28.7719 -3.06009 -0.493461 0 0 0 
151 1 2 -31.3112 -1.98614 -0.81029 0 0 0 
152 1 2 29.3643 -0.974015 -0.864343 0 0 0 
153 1 1 36.9608 -1.15214 -0.23678 0 0 0 
154 1 2 -13.5969 -2.27796 0.147765 0 0 0 
155 1 1 39.5109 -1.47541 -0.331252 0 0 0 
156 1 2 24.3842 -0.632889 -0.117232 0 0 0 
157 1 1 -11.0341 -3.31349 0.563285 0 0 0 
158 1 2 21.8733 -0.633608 0.212374 0 0 0 
159 1 1 -8.47536 -3.19556 0.766497 0 0 0 
160 1 2 26.8679 -0.791111 -0.530522 0 0 0 
161 1 1 -3.39306 -2.83804 1.11581 0 0 0 
162 1 1 21.9828 -0.494741 1.29692 0 0 0 
163 1 1 -5.93151 -3.01708 0.979237 0 0 0 
164 1 1 10.4094 -1.15796 -1.14896 0 0 0 
165 1 1 -64.0776 0.274945 0.0621045 0 0 0 
166 1 1 19.3944 -0.704248 1.47785 0 0 0 
167 1 1 29.5235 -0.754864 0.201055 0 0 0 
168 1 2 -11.0688 -2.23006 0.38429 0 0 0 
169 1 1 4.27448 -1.27201 2.07164 0 0 0 
170 1 2 -3.4714 -1.7437 1.05306 0 0 0 
171 1 2 -28.7757 -1.9726 -0.664277 0 0 0 
172 1 1 27.0532 -0.647132 0.541927 0 0 0 
173 1 1 24.5597 -0.482575 0.957038 0 0 0 
174 1 1 15.4922 -0.68326 -1.2021 0 0 0 
175 1 2 -8.54123 -2.10591 0.640083 0 0 0 
176 1 1 15.3798 0.556342 0.063787 0 0 0 
177 1 1 -24.9392 -0.550724 -1.40475 0 0 0 
178 1 1 -60.0955 0.390577 -2.56296 0 0 0 
179 1 1 12.874 0.29933 -0.00748702 0 0 0 
180 1 1 7.83979 -1.22882 -1.0203 0 0 0 
181 1 2 -6.01123 -1.92525 0.883144 0 0 0 
182 1 1 -31.4286 -1.51356 0.177035 0 0 0 
183 1 1 10.3934 0.140303 0.060586 0 0 0 
184 1 1 -3.55096 -1.40699 2.09587 0 0 0 
185 1 1 5.31165 -1.20686 -0.82836 0 0 0 
186 1 1 -6.1334 -1.56028 1.91242 0 0 0 
187 1 2 15.486 -0.527752 -0.109976 0 0 0 
188 1 1 -13.6997 -1.77194 1.11816 0 0 0 
189 1 2 7.90774 -1.02432 0.0613756 0 0 0 
190 1 1 -28.7824 -1.511 0.335281 0 0 0 
191 1 2 5.38142 -1.00722 0.251321 0 0 0 
192 1 1 12.9755 -1.00451 -1.20528 0 0 0 
193 1 1 -8.67984 -1.71273 1.65703 0 0 0 
194 1 1 16.9248 -2.09267 0.314052 0 0 0 
195 1 1 -40.0938 -2.55153 -3.05393 0 0 0 
196 1 1 -11.1972 -1.78508 1.38106 0 0 0 
197 1 2 12.966 -0.793612 -0.122701 0 0 0 
198 1 1 -22.3749 -2.27532 -2.06185 0 0 0 
199 1 2 10.4383 -0.954476 -0.0654437 0 0 0 
200 1 1 9.24402 -2.68375 0.484357 0 0 0 
201 1 1 -17.3015 -2.48258 -1.87242 0 0 0 
202 1 1 14.3987 -2.34569 0.373248 0 0 0 
203 1 1 -37.6982 -0.981 -2.05215 0 0 0 
204 1 1 -45.201 -2.48253 -3.07016 0 0 0 
205 1 1 11.8209 -2.56571 0.394289 0 0 0 
206 1 1 6.67062 -2.70826 0.652802 0 0 0 
207 1 1 -17.2768 -0.842685 -1.19137 0 0 0 
208 1 2 6.68704 -1.61606 0.773701 0 0 0 
209 1 1 -19.8003 -0.744231 -1.32925 0 0 0 
210 1 1 -42.6586 -2.52033 -3.07052 0 0 0 
211 1 2 16.8162 -1.01117 0.477274 0 0 0 
212 1 2 11.754 -1.4763 0.520286 0 0 0 
213 1 1 -59.8334 1.22386 -1.01805 0 0 0 
214 1 1 -24.8646 -2.13078 -2.211 0 0 0 
215 1 2 9.2203 -1.59245 0.609832 0 0 0 
216 1 2 14.2861 -1.26002 0.500271 0 0 0 
217 1 1 -35.1678 -0.781982 -1.99281 0 0 0 
218 1 1 16.8171 -0.89043 1.56945 0 0 0 
219 1 1 -22.377 -0.630266 -1.39328 0 0 0 
220 1 1 -27.3932 -2.01587 -2.36717 0 0 0 
221 1 1 14.2665 -1.10514 1.58809 0 0 0 
222 1 1 11.7666 -1.31944 1.60786 0 0 0 
223 1 1 -32.6343 -0.578789 -1.85704 0 0 0 
224 1 2 -45.1921 -2.23248 -1.99581 0 0 0 
225 1 1 6.77425 -1.45742 1.85639 0 0 0 
226 1 2 -17.3307 -1.91267 -0.928669 0 0 0 
227 1 1 9.27059 -1.43457 1.69575 0 0 0 
228 1 2 -40.1354 -2.21652 -2.00398 0 0 0 
229 1 2 -24.9347 -1.63941 -1.22574 0 0 0 
230 1 2 -42.6664 -2.26024 -1.99902 0 0 0 
231 1 2 -27.4632 -1.59154 -1.35454 0 0 0 
232 1 2 -32.5428 -1.6567 -1.65883 0 0 0 
233 1 1 -19.8751 -2.39843 -1.97114 0 0 0 
234 1 1 -34.9551 -2.33691 -2.82357 0 0 0 
235 1 2 -37.6017 -2.07561 -1.95491 0 0 0 
236 1 1 -16.1526 -3.35571 0.185831 0 0 0 
237 1 2 -19.8695 -1.80653 -1.04033 0 0 0 
238 1 2 -35.07 -1.8687 -1.83169 0 0 0 
239 1 2 -22.4044 -1.699 -1.12155 0 0 0 
240 1 1 -61.7278 -1.13524 -1.48823 0 0 0 
241 1 1 -43.9469 -3.91487 -1.41318 0 0 0 
242 1 1 -23.742 -3.07135 -0.109697 0 0 0 
243 1 2 -60.0942 0.251232 -1.4685 0 0 0 
244 1 1 -57.3777 0.609702 -1.16212 0 0 0 
245 1 1 -18.7063 -3.24995 0.0859899 0 0 0 
246 1 1 -21.2286 -3.08835 0.059136 0 0 0 
247 1 2 -43.935 -2.81872 -1.34677 0 0 0 
248 1 2 -61.4949 -0.167801 -1.0169 0 0 0 
249 1 1 -26.2704 -3.14111 -0.409228 0 0 0 
250 1 1 -59.269 -1.77202 -1.50856 0 0 0 
251 1 2 -26.2448 -2.05105 -0.546964 0 0 0 
252 1 2 -16.1222 -2.28573 -0.0632463 0 0 0 
253 1 1 -33.7516 -3.22632 -0.775631 0 0 0 
254 1 2 -21.1753 -2.04318 -0.274743 0 0 0 
255 1 1 -36.2527 -3.48878 -1.00805 0 0 0 
256 1 1 -38.7917 -3.73509 -1.22074 0 0 0 
257 1 2 -23.7101 -2.00728 -0.382004 0 0 0 
258 1 1 -41.3691 -3.88421 -1.36045 0 0 0 
259 1 2 -18.6486 -2.18981 -0.197886 0 0 0 
260 1 1 -54.961 0.0588204 -1.34892 0 0 0 
261 1 1 -16.1858 -1.77026 0.905599 0 0 0 
262 1 1 -61.5164 -0.359174 0.064253 0 0 0 
263 1 1 -18.6669 -1.64281 0.75539 0 0 0 
264 1 2 -59.028 -0.781537 -1.09279 0 0 0 
265 1 1 -21.1809 -1.45392 0.653064 0 0 0 
266 1 2 -33.8261 -2.14986 -0.982938 0 0 0 
267 1 1 -26.2878 -1.64243 0.471304 0 0 0 
268 1 1 -23.7409 -1.47194 0.57755 0 0 0 
269 1 2 -38.855 -2.63936 -1.27718 0 0 0 
270 1 2 -41.3906 -2.78586 -1.33412 0 0 0 
271 1 2 -36.3366 -2.40313 -1.15583 0 0 0 
272 1 1 -41.3958 -2.53035 -0.265043 0 0 0 
273 1 1 -52.7534 -1.46959 -2.94535 0 0 0 
274 1 1 -43.9314 -2.60224 -0.269326 0 0 0 
275 1 1 -33.9339 -1.68226 0.00595717 0 0 0 
276 1 1 -58.9737 -0.917499 -0.00159165 0 0 0 
277 1 1 -36.4218 -1.98886 -0.141067 0 0 0 
278 1 1 -38.8965 -2.30648 -0.230187 0 0 0 
279 1 1 -47.7127 -2.27673 -3.06322 0 0 0 
280 1 1 -47.6492 -0.994425 -1.83686 0 0 0 
281 1 1 -50.1031 -0.758734 -1.70951 0 0 0 
282 1 1 -55.2189 -0.90488 -2.81714 0 0 0 
283 1 1 -52.5371 -0.40486 -1.54135 0 0 0 
284 1 1 -57.6183 -0.249834 -2.68394 0 0 0 
285 1 2 -47.712 -2.08709 -1.97641 0 0 0 
286 1 2 -55.1885 -0.956681 -1.7155 0 0 0 
287 1 2 -57.6397 -0.372547 -1.59084 0 0 0 
288 1 1 -50.2441 -1.93329 -3.03335 0 0 0 
289 1 1 -46.5437 -3.83568 -1.42595 0 0 0 
290 1 2 -50.2241 -1.83206 -1.93502 0 0 0 
291 1 2 -52.718 -1.45071 -1.84291 0 0 0 
292 1 1 -54.2877 -2.93373 -1.60812 0 0 0 
293 1 1 -49.1322 -3.67554 -1.55411 0 0 0 
294 1 1 -51.723 -3.37262 -1.61773 0 0 0 
295 1 1 -56.8166 -2.38515 -1.56749 0 0 0 
296 1 2 -56.5621 -1.38486 -1.19031 0 0 0 
297 1 2 -46.4807 -2.7428 -1.34382 0 0 0 
298 1 2 -51.5551 -2.31927 -1.35391 0 0 0 
299 1 2 -54.0684 -1.90739 -1.28287 0 0 0 
300 1 2 -49.0232 -2.5977 -1.37081 0 0 0 
301 1 1 -46.4632 -2.544 -0.263063 0 0 0 
302 1 1 -48.9984 -2.49872 -0.27644 0 0 0 
303 1 1 -51.5157 -2.30635 -0.255476 0 0 0 
304 1 1 -56.5343 -1.49463 -0.0972522 0 0 0 
305 1 1 -54.0258 -1.96232 -0.186052 0 0 0 
306 2 3 73.1628 -17.7342 -12.5003 0 0 0 
307 2 4 74.1365 -17.6647 -12.6081 0 0 0 
308 2 4 73.0359 -17.9282 -11.5491 0 0 0 
309 3 3 70.4117 -17.5099 -12.8887 0 0 0 
310 3 4 71.3638 -17.6843 -13.04 0 0 0 
311 3 4 70.1442 -18.106 -12.1644 0 0 0 
312 4 3 62.6639 -17.9081 -12.0577 0 0 0 
313 4 4 62.8709 -18.8657 -12.1375 0 0 0 
314 4 4 63.5176 -17.4803 -11.8134 0 0 0 
315 5 3 60.5365 -16.2668 -12.9037 0 0 0 
316 5 4 61.2816 -16.8915 -12.7779 0 0 0 
317 5 4 59.7672 -16.6509 -12.4417 0 0 0 
318 6 3 56.1647 -17.8401 -12.2121 0 0 0 
319 6 4 56.3441 -18.0188 -13.1471 0 0 0 
320 6 4 57.0412 -17.7802 -11.7676 0 0 0 
321 7 3 54.1292 -19.2073 -10.7904 0 0 0 
322 7 4 54.8345 -18.8686 -11.3814 0 0 0 
323 7 4 53.9466 -18.4592 -10.1798 0 0 0 
324 8 3 52.1494 18.9563 -11.5441 0 -1 0 
325 8 4 52.7843 19.6873 -11.3856 0 -1 0 
326 8 4 52.668 18.269 -12.0173 0 -1 0 
327 9 3 46.3666 -17.1357 -11.0503 0 0 0 
328 9 4 46.7055 -17.4193 -11.9126 0 0 0 
329 9 4 46.8602 -17.6787 -10.3896 0 0 0 
330 10 3 44.2653 -18.6511 -9.843 0 0 0 
331 10 4 44.7801 -17.9246 -10.2488 0 0 0 
332 10 4 44.4476 -19.4434 -10.4003 0 0 0 
333 11 3 38.2865 -17.43 -9.98069 0 0 0 
334 11 4 38.9932 -16.9685 -10.4763 0 0 0 
335 11 4 38.5812 -17.4031 -9.04753 0 0 0 
336 12 3 36.4476 -18.819 -11.5928 0 0 0 
337 12 4 37.2021 -18.499 -11.0552 0 0 0 
338 12 4 36.7315 -19.6817 -11.9728 0 0 0 
339 13 3 25.1842 -15.1764 -12.2167 0 0 0 
340 13 4 25.629 -14.3208 -12.3851 0 0 0 
341 13 4 25.6958 -15.5798 -11.4871 0 0 0 
342 14 3 24.3249 -17.757 -12.8978 0 0 0 
343 14 4 24.5259 -16.8004 -12.9196 0 0 0 
344 14 4 24.8908 -18.13 -12.1903 0 0 0 
345 15 3 22.1116 -19.0808 -12.0308 0 0 0 
346 15 4 22.8001 -18.64 -12.5794 0 0 0 
347 15 4 22.4577 -19.9886 -11.8798 0 0 0 
348 16 3 19.3895 -18.7317 -11.5631 0 0 0 
349 16 4 20.295 -18.8461 -11.9291 0 0 0 
350 16 4 19.2863 -17.7672 -11.407 0 0 0 
351 17 3 16.8105 -19.8194 -11.5103 0 0 0 
352 17 4 17.6802 -19.3997 -11.6938 0 0 0 
353 17 4 16.5363 19.7228 -12.3362 0 -1 0 
354 18 3 9.77572 -16.9528 -11.4032 0 0 0 
355 18 4 10.2862 -17.693 -11.7684 0 0 0 
356 18 4 10.1776 -16.7327 -10.5354 0 0 0 
357 19 3 7.04388 -17.6769 -11.2838 0 0 0 
358 19 4 7.94608 -17.3012 -11.2487 0 0 0 
359 19 4 7.18673 -18.6222 -11.5217 0 0 0 
360 20 3 0.408661 -19.0996 -11.4141 0 0 0 
361 20 4 0.796565 -19.9474 -11.6864 0 0 0 
362 20 4 1.07078 -18.4085 -11.6424 0 0 0 
363 21 3 -2.41507 -19.1212 -11.5897 0 0 0 
364 21 4 -1.44505 -18.9778 -11.6538 0 0 0 
365 21 4 -2.54409 19.9062 -11.6165 0 -1 0 
366 22 3 -4.87849 -17.748 -11.7408 0 0 0 
367 22 4 -3.94718 -18.0509 -11.7937 0 0 0 
368 22 4 -5.42714 -18.4857 -12.0424 0 0 0 
369 23 3 -10.2713 -16.9896 -11.3209 0 0 0 
370 23 4 -9.81238 -16.127 -11.3965 0 0 0 
371 23 4 -9.63985 -17.5726 -10.8537 0 0 0 
372 24 3 -12.8959 -17.1522 -12.0544 0 0 0 
373 24 4 -11.9593 -17.0318 -11.7619 0 0 0 
374 24 4 -12.879 -17.9388 -12.6225 0 0 0 
375 25 3 -19.6781 -17.3119 -9.52212 0 0 0 
376 25 4 -19.659 -16.724 -10.301 0 0 0 
377 25 4 -18.8179 -17.7898 -9.53729 0 0 0 
378 26 3 -22.7313 -15.2051 -11.3766 0 0 0 
379 26 4 -21.7982 -15.2955 -11.6531 0 0 0 
380 26 4 -22.7687 -15.6071 -10.482 0 0 0 
381 27 3 -27.8439 -17.0526 -11.4881 0 0 0 
382 27 4 -26.9739 -16.7032 -11.7672 0 0 0 
383 27 4 -27.823 -17.0545 -10.5139 0 0 0 
384 28 3 -29.9468 -15.4052 -12.1504 0 0 0 
385 28 4 -29.3383 -16.1745 -12.1104 0 0 0 
386 28 4 -29.9489 -15.0265 -11.2474 0 0 0 
387 29 3 -32.7205 -15.2494 -12.6107 0 0 0 
388 29 4 -31.744 -15.3224 -12.6609 0 0 0 
389 29 4 -33.0213 -15.9154 -11.9632 0 0 0 
390 30 3 -38.4724 -18.0395 -11.6422 0 0 0 
391 30 4 -38.3218 -18.8853 -12.119 0 0 0 
392 30 4 -37.7118 -17.9361 -11.0318 0 0 0 
393 31 3 -39.5045 -15.7324 -12.8856 0 0 0 
394 31 4 -38.9411 -16.4463 -12.5223 0 0 0 
395 31 4 -40.2973 -16.1624 -13.2379 0 0 0 
396 32 3 -46.7069 -18.2845 -12.1658 0 0 0 
397 32 4 -46.7392 -19.2418 -11.9888 0 0 0 
398 32 4 -45.7548 -18.0627 -12.1952 0 0 0 
399 33 3 -48.736 -16.4299 -11.9073 0 0 0 
400 33 4 -48.0055 -17.0338 -12.1745 0 0 0 
401 33 4 -48.6563 -16.3334 -10.9396 0 0 0 
402 34 3 -50.8868 -18.1236 -11.0451 0 0 0 
403 34 4 -50.2968 -17.6298 -11.6504 0 0 0 
404 34 4 -50.6881 -19.074 -11.1869 0 0 0 
405 35 3 -58.1644 -18.7426 -12.3904 0 0 0 
406 35 4 -57.8459 -19.6032 -12.7251 0 0 0 
407 35 4 -57.4448 -18.3834 -11.8282 0 0 0 
408 36 3 -60.7846 -19.3451 -11.8872 0 0 0 
409 36 4 -59.9402 -18.8919 -12.1091 0 0 0 
410 36 4 -60.6852 19.7663 -12.2975 0 -1 0 
411 37 3 -63.532 -19.9037 -11.8528 0 0 0 
412 37 4 -62.641 -19.4991 -11.8929 0 0 0 
413 37 4 -63.3868 19.13 -11.8712 0 -1 0 
414 38 3 -71.7014 -18.1009 -11.6349 0 0 0 
415 38 4 -72.0723 -18.988 -11.8323 0 0 0 
416 38 4 -70.7301 -18.1887 -11.7268 0 0 0 
417 39 3 -74.2689 -16.9821 -12.0359 0 0 0 
418 39 4 -73.392 -17.3545 -12.2492 0 0 0 
419 39 4 -74.1837 -16.6393 -11.1272 0 0 0 
420 40 3 73.1836 -14.9083 -12.2658 0 0 0 
421 40 4 73.2708 -15.7773 -12.709 0 0 0 
422 40 4 73.6593 -15.0163 -11.4137 0 0 0 
423 41 3 70.41 -14.9602 -11.8764 0 0 0 
424 41 4 71.379 -14.9038 -12.0114 0 0 0 
425 41 4 70.1413 -15.7611 -12.3816 0 0 0 
426 42 3 63.9913 -13.8858 -12.9622 0 0 0 
427 42 4 64.1703 -14.5955 -13.5996 0 0 0 
428 42 4 64.5985 -14.0482 -12.2046 0 0 0 
429 43 3 61.3076 -13.7251 -12.2142 0 0 0 
430 43 4 62.2375 -13.7658 -12.5192 0 0 0 
431 43 4 60.8713 -14.5119 -12.6147 0 0 0 
432 44 3 55.5319 -15.3466 -10.9117 0 0 0 
433 44 4 55.6906 -16.1334 -11.4724 0 0 0 
434 44 4 56.4068 -15.0684 -10.5658 0 0 0 
435 45 3 53.6728 -13.2385 -10.8694 0 0 0 
436 45 4 54.3027 -13.9324 -11.1571 0 0 0 
437 45 4 53.4635 -13.4686 -9.9401 0 0 0 
438 46 3 51.139 -11.8957 -11.1694 0 0 0 
439 46 4 51.9514 -12.4366 -11.2309 0 0 0 
440 46 4 50.5479 -12.3398 -10.5297 0 0 0 
441 47 3 45.5475 -14.4521 -11.0315 0 0 0 
442 47 4 45.88 -15.3764 -11.0796 0 0 0 
443 47 4 46.1218 -13.9992 -10.3754 0 0 0 
444 48 3 42.9996 -14.7707 -9.95219 0 0 0 
445 48 4 43.8284 -14.6812 -10.468 0 0 0 
446 48 4 43.281 -15.1988 -9.11437 0 0 0 
447 49 3 40.3961 -15.6381 -10.2734 0 0 0 
448 49 4 41.3435 -15.425 -10.4141 0 0 0 
449 49 4 40.3475 -16.022 -9.37312 0 0 0 
450 50 3 36.2714 -15.9986 -11.333 0 0 0 
451 50 4 36.8839 -16.351 -10.6591 0 0 0 
452 50 4 35.9699 -16.7856 -11.823 0 0 0 
453 51 3 29.2929 -12.275 -11.1107 0 0 0 
454 51 4 30.2706 -12.1624 -11.0796 0 0 0 
455 51 4 29.096 -12.9075 -10.391 0 0 0 
456 52 3 26.572 -12.8812 -11.615 0 0 0 
457 52 4 27.5395 -12.7295 -11.6116 0 0 0 
458 52 4 26.3241 -13.2015 -10.7233 0 0 0 
459 53 3 22.9035 -13.4288 -12.0464 0 0 0 
460 53 4 23.5434 -14.1033 -12.3443 0 0 0 
461 53 4 22.576 -13.7427 -11.1788 0 0 0 
462 54 3 19.0069 -13.2889 -12.2852 0 0 0 
463 54 4 19.4453 -14.0623 -12.6779 0 0 0 
464 54 4 18.8393 -13.5277 -11.3504 0 0 0 
465 55 3 16.6646 -11.7911 -12.8599 0 0 0 
466 55 4 17.414 -12.4154 -12.8036 0 0 0 
467 55 4 16.0629 -12.0077 -12.1177 0 0 0 
468 56 3 8.55391 -14.4625 -11.8578 0 0 0 
469 56 4 9.09205 -15.2513 -12.075 0 0 0 
470 56 4 8.51521 -14.4492 -10.8788 0 0 0 
471 57 3 5.8833 -15.2927 -12.3187 0 0 0 
472 57 4 6.7751 -14.8964 -12.3678 0 0 0 
473 57 4 6.02684 -16.1736 -11.913 0 0 0 
474 58 3 3.37261 -15.635 -13.5677 0 0 0 
475 58 4 4.30096 -15.5707 -13.2692 0 0 0 
476 58 4 2.96957 -16.3595 -13.0502 0 0 0 
477 59 3 -1.48567 -14.5754 -10.8779 0 0 0 
478 59 4 -1.70845 -15.2003 -10.1622 0 0 0 
479 59 4 -2.20437 -13.9112 -10.8889 0 0 0 
480 60 3 -6.09471 -15.4627 -10.7544 0 0 0 
481 60 4 -5.70924 -16.2609 -11.1861 0 0 0 
482 60 4 -5.71699 -15.4468 -9.85452 0 0 0 
483 61 3 -8.79321 -14.6634 -11.0176 0 0 0 
484 61 4 -7.87815 -14.9728 -10.8383 0 0 0 
485 61 4 -9.15468 -14.2917 -10.1872 0 0 0 
486 62 3 -14.2417 -14.6529 -11.9239 0 0 0 
487 62 4 -13.8108 -15.5077 -12.144 0 0 0 
488 62 4 -13.7733 -14.3299 -11.1242 0 0 0 
489 63 3 -17.0632 -14.6648 -11.4101 0 0 0 
490 63 4 -16.1766 -14.8704 -11.7728 0 0 0 
491 63 4 -16.9295 -14.5937 -10.441 0 0 0 
492 64 3 -19.8197 -15.013 -11.3418 0 0 0 
493 64 4 -18.8924 -15.0634 -11.6618 0 0 0 
494 64 4 -19.7678 -14.5117 -10.4966 0 0 0 
495 65 3 -25.5735 -15.463 -11.6046 0 0 0 
496 65 4 -24.6069 -15.4954 -11.7501 0 0 0 
497 65 4 -25.7054 -14.9659 -10.7697 0 0 0 
498 66 3 -27.5708 -13.8209 -12.8277 0 0 0 
499 66 4 -26.9353 -14.5135 -12.564 0 0 0 
500 66 4 -28.4571 -14.2299 -12.8259 0 0 0 
501 67 3 -34.0216 -13.1811 -11.386 0 0 0 
502 67 4 -33.6618 -13.8191 -12.0452 0 0 0 
503 67 4 -33.4961 -13.3488 -10.5742 0 0 0 
504 68 3 -36.7829 -13.2198 -10.6919 0 0 0 
505 68 4 -35.933 -13.3158 -11.1719 0 0 0 
506 68 4 -36.5791 -13.5023 -9.7761 0 0 0 
507 69 3 -39.5226 -13.4617 -11.3128 0 0 0 
508 69 4 -38.5762 -13.4161 -11.0592 0 0 0 
509 69 4 -39.5644 -14.1764 -11.988 0 0 0 
510 70 3 -43.8314 -11.2939 -12.3628 0 0 0 
511 70 4 -43.612 -12.189 -12.6558 0 0 0 
512 70 4 -44.7135 -11.341 -11.9371 0 0 0 
513 71 3 -49.577 -13.719 -12.3429 0 0 0 
514 71 4 -49.2595 -14.6249 -12.5403 0 0 0 
515 71 4 -49.7548 -13.7151 -11.3801 0 0 0 
516 72 3 -51.8603 -12.0376 -12.7287 0 0 0 
517 72 4 -51.1565 -12.7072 -12.8322 0 0 0 
518 72 4 -52.2336 -12.1584 -11.8361 0 0 0 
519 73 3 -57.0848 -14.2675 -11.0887 0 0 0 
520 73 4 -56.6602 -15.0717 -11.4265 0 0 0 
521 73 4 -57.4213 -14.4833 -10.1948 0 0 0 
522 74 3 -61.1952 -14.7087 -11.8042 0 0 0 
523 74 4 -60.7275 -15.5054 -12.1017 0 0 0 
524 74 4 -61.1917 -14.728 -10.8211 0 0 0 
525 75 3 -63.8481 -13.8751 -12.3157 0 0 0 
526 75 4 -62.9533 -14.2678 -12.3492 0 0 0 
527 75 4 -64.2146 -14.1075 -11.4405 0 0 0 
528 76 3 -68.0128 -12.8358 -12.3083 0 0 0 
529 76 4 -67.3643 -13.0581 -12.9952 0 0 0 
530 76 4 -67.7646 -13.3482 -11.5105 0 0 0 
531 77 3 -70.8 -12.2882 -11.8447 0 0 0 
532 77 4 -69.9505 -12.6282 -12.1917 0 0 0 
533 77 4 -71.2593 -13.0227 -11.3921 0 0 0 
534 78 3 73.0107 -12.1561 -12.2544 0 0 0 
535 78 4 73.5391 -11.7041 -12.9294 0 0 0 
536 78 4 73.1108 -13.1218 -12.419 0 0 0 
537 79 3 70.4145 -12.3116 -11.0857 0 0 0 
538 79 4 71.1568 -12.018 -11.6508 0 0 0 
539 79 4 70.1844 -13.2129 -11.4 0 0 0 
540 80 3 63.74 -11.1331 -12.3907 0 0 0 
541 80 4 63.7579 -10.597 -13.1981 0 0 0 
542 80 4 63.7998 -12.0727 -12.6683 0 0 0 
543 81 3 61.0458 -11.0775 -11.3784 0 0 0 
544 81 4 61.9892 -10.8884 -11.5559 0 0 0 
545 81 4 60.9152 -12.0041 -11.6772 0 0 0 
546 82 3 59.0624 -9.1363 -11.9901 0 0 0 
547 82 4 59.7613 -9.81309 -11.9062 0 0 0 
548 82 4 58.2802 -9.47171 -11.5085 0 0 0 
549 83 3 54.2444 -10.4571 -10.6705 0 0 0 
550 83 4 55.1824 -10.1834 -10.7637 0 0 0 
551 83 4 54.1852 -11.3854 -10.9837 0 0 0 
552 84 3 51.7362 -9.22139 -10.7919 0 0 0 
553 84 4 52.6985 -9.40718 -10.8189 0 0 0 
554 84 4 51.3309 -10.0461 -11.1412 0 0 0 
555 85 3 44.213 -12.2399 -12.0964 0 0 0 
556 85 4 44.5812 -11.9875 -12.9565 0 0 0 
557 85 4 44.6843 -13.0596 -11.8233 0 0 0 
558 86 3 41.6922 -12.4087 -10.7993 0 0 0 
559 86 4 42.3647 -12.1878 -11.4749 0 0 0 
560 86 4 42.0451 -13.212 -10.3599 0 0 0 
561 87 3 39.0786 -13.1993 -10.168 0 0 0 
562 87 4 39.8482 -12.6746 -10.4804 0 0 0 
563 87 4 39.3542 -14.1328 -10.3094 0 0 0 
564 88 3 36.5185 -13.269 -11.4974 0 0 0 
565 88 4 37.4742 -13.2363 -11.3102 0 0 0 
566 88 4 36.2939 -14.2256 -11.5585 0 0 0 
567 89 3 27.9939 -9.83041 -10.8312 0 0 0 
568 89 4 28.5103 -9.03941 -11.0529 0 0 0 
569 89 4 28.531 -10.6094 -11.0989 0 0 0 
570 90 3 25.3352 -10.4272 -11.6316 0 0 0 
571 90 4 26.1531 -9.91057 -11.4868 0 0 0 
572 90 4 25.6408 -11.3219 -11.896 0 0 0 
573 91 3 22.5601 -10.7063 -11.766 0 0 0 
574 91 4 23.469 -10.3718 -11.9197 0 0 0 
575 91 4 22.616 -11.6709 -11.9569 0 0 0 
576 92 3 19.781 -10.6081 -11.8469 0 0 0 
577 92 4 20.7548 -10.5115 -11.921 0 0 0 
578 92 4 19.5752 -11.5089 -12.1774 0 0 0 
579 93 3 17.5002 -9.17833 -12.703 0 0 0 
580 93 4 18.4277 -9.42127 -12.5023 0 0 0 
581 93 4 17.0882 -10.0168 -13.0125 0 0 0 
582 94 3 7.5247 -11.8782 -11.9823 0 0 0 
583 94 4 8.10629 -11.1686 -12.299 0 0 0 
584 94 4 8.01723 -12.7224 -12.0872 0 0 0 
585 95 3 4.88462 -12.5575 -12.5363 0 0 0 
586 95 4 5.80563 -12.2304 -12.474 0 0 0 
587 95 4 4.94755 -13.5265 -12.4128 0 0 0 
588 96 3 2.26252 -13.1117 -13.4969 0 0 0 
589 96 4 3.12333 -12.7047 -13.282 0 0 0 
590 96 4 2.47013 -14.0491 -13.7014 0 0 0 
591 97 3 0.268813 -12.5869 -11.6862 0 0 0 
592 97 4 0.824029 -12.7726 -12.4794 0 0 0 
593 97 4 -0.254552 -13.4053 -11.5215 0 0 0 
594 98 3 -5.71863 -12.9575 -11.9308 0 0 0 
595 98 4 -4.76368 -12.7604 -11.8387 0 0 0 
596 98 4 -5.81397 -13.9181 -11.7557 0 0 0 
597 99 3 -8.34613 -12.1036 -12.0234 0 0 0 
598 99 4 -7.3831 -12.1826 -12.1927 0 0 0 
599 99 4 -8.66039 -13.0263 -11.9325 0 0 0 
600 100 3 -15.1498 -12.1337 -12.722 0 0 0 
601 100 4 -14.6047 -11.8096 -13.4545 0 0 0 
602 100 4 -14.8705 -13.0639 -12.5612 0 0 0 
603 101 3 -17.8778 -11.9735 -11.9271 0 0 0 
604 101 4 -17.0689 -11.7417 -12.425 0 0 0 
605 101 4 -17.7469 -12.913 -11.6855 0 0 0 
606 102 3 -20.6893 -12.3014 -11.993 0 0 0 
607 102 4 -19.8043 -11.8974 -12.1097 0 0 0 
608 102 4 -20.5326 -13.2641 -11.9885 0 0 0 
609 103 3 -23.4895 -12.6007 -12.1435 0 0 0 
610 103 4 -22.5978 -12.2533 -12.3468 0 0 0 
611 103 4 -23.3589 -13.5533 -11.9563 0 0 0 
612 104 3 -26.0901 -11.5219 -12.373 0 0 0 
613 104 4 -25.2005 -11.8679 -12.582 0 0 0 
614 104 4 -26.7237 -12.2271 -12.6332 0 0 0 
615 105 3 -34.5531 -10.4987 -11.5522 0 0 0 
616 105 4 -33.8844 -9.99168 -12.0386 0 0 0 
617 105 4 -34.3168 -11.4496 -11.653 0 0 0 
618 106 3 -37.3206 -10.4886 -11.1765 0 0 0 
619 106 4 -36.4356 -10.2602 -11.5306 0 0 0 
620 106 4 -37.2628 -11.4472 -10.9766 0 0 0 
621 107 3 -40.0847 -10.7048 -11.2634 0 0 0 
622 107 4 -39.1472 -10.4342 -11.3611 0 0 0 
623 107 4 -40.0831 -11.6774 -11.3982 0 0 0 
624 108 3 -42.4209 -9.07666 -11.5172 0 0 0 
625 108 4 -41.4998 -9.40787 -11.5678 0 0 0 
626 108 4 -42.9482 -9.78394 -11.9561 0 0 0 
627 109 3 -48.716 -10.9848 -12.2582 0 0 0 
628 109 4 -47.7442 -10.998 -12.147 0 0 0 
629 109 4 -48.9787 -11.8997 -12.4928 0 0 0 
630 110 3 -50.9554 -9.40766 -12.9544 0 0 0 
631 110 4 -50.0309 -9.70019 -12.814 0 0 0 
632 110 4 -51.4459 -10.2399 -13.1306 0 0 0 
633 111 3 -58.0671 -11.6763 -11.2453 0 0 0 
634 111 4 -57.3964 -11.0836 -11.6192 0 0 0 
635 111 4 -57.6879 -12.5855 -11.2899 0 0 0 
636 112 3 -60.8323 -11.9071 -11.7456 0 0 0 
637 112 4 -59.8707 -11.7162 -11.7148 0 0 0 
638 112 4 -60.9119 -12.8587 -11.9691 0 0 0 
639 113 3 -63.5356 -11.134 -12.1548 0 0 0 
640 113 4 -62.5657 -11.0842 -12.2534 0 0 0 
641 113 4 -63.7823 -12.0376 -12.444 0 0 0 
642 114 3 -68.428 -10.1606 -11.2735 0 0 0 
643 114 4 -67.6739 -9.95018 -10.6882 0 0 0 
644 114 4 -68.183 -10.9534 -11.7884 0 0 0 
645 115 3 -71.1236 -9.65757 -11.1564 0 0 0 
646 115 4 -70.1568 -9.47947 -11.1562 0 0 0 
647 115 4 -71.1919 -10.504 -11.6508 0 0 0 
648 116 3 70.5424 -2.82028 -13.3443 0 0 0 
649 116 4 71.3821 -2.31185 -13.2715 0 0 0 
650 116 4 70.7305 -3.57358 -13.9231 0 0 0 
651 117 3 68.8263 -0.691323 -12.746 0 0 0 
652 117 4 69.2855 -1.43849 -13.1762 0 0 0 
653 117 4 68.0907 -1.08301 -12.2343 0 0 0 
654 118 3 67.0445 -2.16889 -11.12 0 0 0 
655 118 4 66.6291 -1.53122 -10.501 0 0 0 
656 118 4 66.3217 -2.79232 -11.3605 0 0 0 
657 119 3 59.8808 -4.43712 -12.9723 0 0 0 
658 119 4 59.5281 -3.53487 -12.8325 0 0 0 
659 119 4 60.7086 -4.48074 -12.4536 0 0 0 
660 120 3 58.3385 -6.43965 -11.8072 0 0 0 
661 120 4 58.8273 -5.77454 -12.3383 0 0 0 
662 120 4 58.696 -7.31759 -12.0609 0 0 0 
663 121 3 51.7784 -4.93863 -12.4373 0 0 0 
664 121 4 51.3955 -4.03203 -12.442 0 0 0 
665 121 4 52.4759 -4.93402 -13.1066 0 0 0 
666 122 3 51.7441 -6.45828 -10.1542 0 0 0 
667 122 4 51.7016 -5.95877 -11.0029 0 0 0 
668 122 4 51.6428 -7.40452 -10.3959 0 0 0 
669 123 3 46.1602 -3.93005 -12.0054 0 0 0 
670 123 4 46.2181 -2.98792 -12.2764 0 0 0 
671 123 4 46.4324 -4.46156 -12.7685 0 0 0 
672 124 3 43.3642 -3.51032 -11.1891 0 0 0 
673 124 4 43.3428 -2.68944 -11.7182 0 0 0 
674 124 4 44.2718 -3.86033 -11.2706 0 0 0 
675 125 3 37.3937 -3.84392 -13.5041 0 0 0 
676 125 4 37.082 -2.9198 -13.4001 0 0 0 
677 125 4 38.3048 -3.8014 -13.8238 0 0 0 
678 126 3 35.7871 -4.51085 -11.374 0 0 0 
679 126 4 35.1049 -3.8599 -11.6426 0 0 0 
680 126 4 36.3501 -4.60827 -12.172 0 0 0 
681 127 3 31.6992 -3.78431 -12.6967 0 0 0 
682 127 4 31.0272 -3.08099 -12.7954 0 0 0 
683 127 4 32.575 -3.34921 -12.7463 0 0 0 
684 128 3 27.2143 -5.11553 -9.89094 0 0 0 
685 128 4 27.2083 -4.29084 -10.4235 0 0 0 
686 128 4 28.0911 -5.14405 -9.45969 0 0 0 
687 129 3 24.5118 -5.71787 -10.4157 0 0 0 
688 129 4 24.379 -4.80039 -10.7381 0 0 0 
689 129 4 25.4756 -5.78191 -10.2702 0 0 0 
690 130 3 18.1641 -4.62956 -12.5611 0 0 0 
691 130 4 18.0751 -3.67733 -12.7565 0 0 0 
692 130 4 18.921 -4.72027 -11.9492 0 0 0 
693 131 3 16.3101 -6.66366 -12.2559 0 0 0 
694 131 4 16.911 -5.90719 -12.4396 0 0 0 
695 131 4 16.7509 -7.44874 -12.6409 0 0 0 
696 132 3 9.19872 -6.7482 -12.1208 0 0 0 
697 132 4 9.55177 -5.84677 -12.2914 0 0 0 
698 132 4 9.63877 -7.03701 -11.3008 0 0 0 
699 133 3 6.5944 -5.82118 -12.427 0 0 0 
700 133 4 6.71664 -4.87937 -12.6785 0 0 0 
701 133 4 7.45492 -6.2651 -12.5962 0 0 0 
702 134 3 1.92722 -5.26407 -12.3106 0 0 0 
703 134 4 1.85527 -4.3797 -12.7432 0 0 0 
704 134 4 2.22355 -5.87882 -13 0 0 0 
705 135 3 -0.677096 -4.32139 -11.3974 0 0 0 
706 135 4 -0.741069 -3.47523 -11.8867 0 0 0 
707 135 4 0.174024 -4.72449 -11.6543 0 0 0 
708 136 3 -6.46793 -3.12915 -13.1588 0 0 0 
709 136 4 -5.74581 -2.49799 -12.9649 0 0 0 
710 136 4 -6.25303 -3.5405 -14.0074 0 0 0 
711 137 3 -9.1708 -3.33241 -12.1714 0 0 0 
712 137 4 -9.70306 -2.6049 -12.5509 0 0 0 
713 137 4 -8.24744 -3.20158 -12.473 0 0 0 