LAMMPS (24 Apr 2013)
WARNING: OMP_NUM_THREADS environment is not set. (../comm.cpp:100)
  using 1 OpenMP thread(s) per MPI task
# LAMMPS 2005 MD Simulation Parameters - Generated by XenoView
# Structure file "C:\Users\laflij\Dropbox\Xenoview\34m.lmp"
# Source force field file pcff_d.frc

# Define units and force field
units		real
atom_style	full
boundary	p p p
kspace_style	pppm 0.0001

# Read system data
read_restart	confout-0.data
  orthogonal box = (-65.4965 -17.4657 -17.4657) to (65.4965 17.4657 17.4657)
  1 by 1 by 1 MPI processor grid
  10337 atoms
  6992 bonds
  3950 angles
  900 dihedrals
  404 impropers
  4 = max # of 1-2 neighbors
  6 = max # of 1-3 neighbors
  12 = max # of 1-4 neighbors
  16 = max # of special neighbors

# Write (hopefully folded) structure out
dump            icrd all custom 5 system-1.lammpstrj id mol type x y z ix iy iz
dump_modify     icrd sort id
run             1
WARNING: No fixes defined, atoms won't move (../verlet.cpp:54)
PPPM initialization ...
  G vector (1/distance) = 0.2545
  grid = 50 18 18
  stencil order = 5
  estimated absolute RMS force accuracy = 0.0379108
  estimated relative force accuracy = 0.000114167
  using double precision FFTs
  3d grid and FFT values/proc = 34375 16200
Memory usage per processor = 53.8286 Mbytes
Step Temp E_pair E_mol TotEng Press 
    5000    209.25937   -28133.057   -84.165666   -21770.014    10691.332 
    5001    209.25937   -28133.057   -84.165666   -21770.014    10691.332 
Loop time of 0.095382 on 1 procs (1 MPI x 1 OpenMP) for 1 steps with 10337 atoms

Pair  time (%) = 0.084492 (88.5827)
Bond  time (%) = 0.00222397 (2.33164)
Kspce time (%) = 0.00832796 (8.73117)
Neigh time (%) = 0 (0)
Comm  time (%) = 0.000202894 (0.212718)
Outpt time (%) = 6.8903e-05 (0.072239)
Other time (%) = 6.62804e-05 (0.0694894)

FFT time (% of Kspce) = 0.00213312 (25.614)
FFT Gflps 3d (1d only) = 1.47224 2.13701

Nlocal:    10337 ave 10337 max 10337 min
Histogram: 1 0 0 0 0 0 0 0 0 0
Nghost:    22422 ave 22422 max 22422 min
Histogram: 1 0 0 0 0 0 0 0 0 0
Neighs:    2.73991e+06 ave 2.73991e+06 max 2.73991e+06 min
Histogram: 1 0 0 0 0 0 0 0 0 0

Total # of neighbors = 2739906
Ave neighs/atom = 265.058
Ave special neighs/atom = 2.29119
Neighbor list builds = 0
Dangerous builds = 0

# Reset the timestep
undump         	icrd

# Timestep and Neighbour searching
timestep	2.0
neighbor	2.0 bin
neigh_modify	every 1 delay 4 check yes


# Computes
#compute rdf all rdf 100 1 1 1 2 2 2
#compute msd all msd com yes

# Fixes
fix		1 all shake 0.0001 20 0 b 3 a 4
  0 = # of size 2 clusters
  0 = # of size 3 clusters
  0 = # of size 4 clusters
  3344 = # of frozen angles
fix		2 all npt temp 300.0 300.0 100.0 iso 1.0 1.0 100.0
#fix		 rdf all ave/time 1 500000 500000 c_rdf file rdf.xvg mode vector
#fix		 msd all ave/time 1 500000 500000 c_msd file msd.xvg mode vector

# Write out thermodynamic information
thermo_style    custom step temp press vol pe ke etotal
thermo	        250

# Write out trajectory
dump            cxtc all xtc 250 traj-1.xtc

# Write out velocity
#dump 		 1 all custom 1 vel_npt.txt vx vy vz

# Checkpoint files
restart         5000 state_cpt-*.data

# Final run command
run             100000
PPPM initialization ...
  G vector (1/distance) = 0.2545
  grid = 50 18 18
  stencil order = 5
  estimated absolute RMS force accuracy = 0.0379108
  estimated relative force accuracy = 0.000114167
  using double precision FFTs
  3d grid and FFT values/proc = 34375 16200
Memory usage per processor = 53.9477 Mbytes
Step Temp Press Volume PotEng KinEng TotEng 
    5001    309.33994   -337.32157    159838.62   -28217.226    6447.2086   -21770.017 
    5250    294.84909    30.810176    146480.65   -28552.208    6145.1929   -22407.015 
    5500    297.59337     50.32326    139671.73   -28669.172    6202.3886   -22466.783 
    5750    297.23258   -413.27378    136264.54   -28717.946    6194.8691   -22523.077 
    6000    303.07063   -211.52909    130386.73   -28910.969    6316.5446   -22594.424 
    6250    300.83601   -93.361943    125684.82   -28924.487    6269.9711   -22654.516 
    6500    300.12993   -73.813987    120095.41   -28859.728    6255.2552   -22604.473 
    6750    300.14888    -262.6152    112159.44    -29215.64    6255.6501    -22959.99 
    7000    300.16277    283.61489    108082.28   -29478.398    6255.9396   -23222.459 
    7250    302.65035   -39.240496    105562.17   -29563.369    6307.7852   -23255.583 
    7500    297.66846    33.709843    103007.33   -29805.913    6203.9537   -23601.959 
    7750    301.89485   -41.891416    102924.93   -29756.015    6292.0393   -23463.976 
    8000    301.49963   -40.664575    103323.53   -29636.221    6283.8021   -23352.419 
    8250    299.83627   -114.82116    103188.32   -29760.231    6249.1346   -23511.097 
    8500    296.72436    222.89251    102659.46   -29714.682    6184.2769   -23530.405 
    8750    294.93962   -5.0657137     102204.8   -29961.229    6147.0795   -23814.149 
    9000    305.84037   -442.11743    102948.69   -29756.117    6374.2711   -23381.846 
    9250    300.80834    -322.6151    102970.35   -29831.946    6269.3945   -23562.551 
    9500     299.5699    273.53832     102111.1   -29889.966    6243.5831   -23646.383 
    9750    298.32804   -276.53403    102773.23   -29815.637    6217.7004   -23597.937 
   10000    296.97928    -117.9188    102540.94   -29889.147    6189.5899   -23699.557 
   10250    300.45898    125.50722    102731.94   -29694.046    6262.1132   -23431.933 
   10500     297.0958   -370.26016    103092.78   -29769.387    6192.0182   -23577.369 
   10750    301.46385    65.083739    102028.61   -29885.573    6283.0565   -23602.516 
   11000    298.03293   -323.28106    102119.33   -29733.131    6211.5498   -23521.581 
   11250    302.87822    90.369979    102326.25   -29876.877    6312.5344   -23564.342 
   11500    298.58776    5.5890953    102344.01   -29869.488    6223.1135   -23646.375 
   11750    300.21112   -307.76689     102799.9   -29716.933    6256.9473   -23459.986 
   12000    301.04511   -247.01752    102812.64   -29848.549    6274.3292    -23574.22 
   12250     299.0134    69.933993    103287.81   -29708.284    6231.9846     -23476.3 
   12500    299.72188    35.605988    102729.57   -29741.884    6246.7506   -23495.133 
   12750    300.25035   -29.166592    102118.95   -29819.904    6257.7648   -23562.139 
   13000    298.54013   -182.99009    102174.68   -29712.112    6222.1208   -23489.991 
   13250    303.61238    256.77171    102024.07   -29854.458    6327.8358   -23526.622 
   13500    299.39114   -16.695684    102626.22   -29727.542    6239.8575   -23487.684 
   13750     307.9638   -27.977382    102460.79   -29817.088    6418.5273   -23398.561 
   14000    300.34288   -165.15975    101807.65   -29906.827    6259.6933   -23647.134 
   14250    305.65276   -88.564388    102072.82   -29820.559     6370.361   -23450.198 
   14500    299.60405   -123.63842    102188.24   -29866.118    6244.2948   -23621.823 
   14750    297.61425   -138.60271    102785.58   -29751.458    6202.8237   -23548.634 
   15000    305.25212    249.42382    102713.05   -29765.125    6362.0109   -23403.114 
   15250    302.82131    15.936577    101923.44   -29746.696    6311.3484   -23435.347 
   15500    298.29948   -240.48467    102003.49   -29896.293    6217.1053   -23679.188 
   15750    297.81592    -62.32591    101941.31   -29868.134    6207.0269   -23661.107 
   16000    297.70584   -29.928415    102256.83   -29752.635    6204.7327   -23547.903 
   16250    300.36748    100.74931    102200.42   -29781.465     6260.206   -23521.259 
   16500    296.94982   -110.63629    103008.89   -29760.217    6188.9757   -23571.241 
   16750    298.50489    74.625133    102600.51   -29872.076    6221.3862    -23650.69 
   17000    296.78623   -100.46949    102505.97   -29860.962    6185.5663   -23675.396 
   17250    296.58292    17.429122    102528.65   -29737.795     6181.329   -23556.466 
   17500    299.63336    237.17287    103016.99   -29631.728    6244.9058   -23386.823 
   17750    302.15944    27.716639    102640.24   -29704.875    6297.5539   -23407.321 
   18000    302.21963   -81.389448    103070.15    -29875.39    6298.8083   -23576.581 
   18250     297.8757       47.673    102629.26   -29724.871    6208.2728   -23516.598 
   18500    300.33455   -167.37525    103025.18   -29787.792    6259.5199   -23528.272 
   18750     300.7061     30.97995    103061.83   -29829.733    6267.2636   -23562.469 
   19000    292.60775    196.77262    101863.37   -29843.302    6098.4792   -23744.823 
   19250    300.11814   -173.02154    102873.18    -29703.01    6255.0094   -23448.001 
   19500    306.30968    8.6035853    101613.74   -29840.118    6384.0524   -23456.065 
   19750    300.29892   -578.33265    103298.19   -29943.914    6258.7772   -23685.136 
   20000    298.50615    292.43841    102566.98   -29822.122    6221.4125    -23600.71 
   20250    300.86978    196.96521    102514.62   -29847.411    6270.6751   -23576.736 
   20500    298.35219    84.239442    102656.95   -29683.129    6218.2037   -23464.925 
   20750    298.89018    45.676618    102722.26   -29719.285    6229.4165   -23489.869 
   21000    300.93092   -111.45429       102696   -29769.659    6271.9492    -23497.71 
   21250    297.32229    321.14769    103042.43   -29634.714    6196.7388   -23437.975 
   21500    301.89442    143.54451    103032.76   -29695.576    6292.0304   -23403.545 
   21750    295.36996   -78.720866     103215.3   -29759.504    6156.0486   -23603.456 
   22000    297.53793   -27.104426    102759.82   -29781.976    6201.2331   -23580.743 
   22250    301.00966   -121.37845    102795.67   -29655.663    6273.5904   -23382.073 
   22500    299.00033   -259.71368     102623.8   -29700.041    6231.7121   -23468.329 
   22750    294.11957    60.820409    102336.07    -29838.05    6129.9882   -23708.062 
   23000      300.597   -16.021103    102869.31    -29724.52    6264.9897    -23459.53 
   23250    298.32427   -15.997799    102482.52    -29737.72     6217.622   -23520.098 
   23500    297.43613    -420.3511    102936.79   -29689.302    6199.1115   -23490.191 
   23750    301.08036   -213.56302    102873.97   -29585.975    6275.0638   -23310.911 
   24000    300.57688   -288.32615    102637.27   -29848.727    6264.5703   -23584.157 
   24250    298.23017    258.98464    101475.23   -29729.487    6215.6606   -23513.826 
   24500    300.60942     -41.3504    103291.94   -29657.082    6265.2486   -23391.834 
   24750    300.55232    123.28149    102046.32     -29800.2    6264.0585   -23536.142 
   25000    299.93021    64.559008    102340.98   -29775.554    6251.0926   -23524.462 
   25250    305.39144    168.40655    101502.97   -29847.509    6364.9146   -23482.595 
   25500    297.36383    155.89302     101181.1   -29803.763    6197.6046   -23606.158 
   25750    302.09583   -70.048617    102546.65   -29735.247    6296.2282   -23439.019 
   26000    299.79747    38.702299    102946.56   -29622.673    6248.3261   -23374.346 
   26250    295.85183    157.42216    103233.95   -29626.971    6166.0918   -23460.879 
   26500    299.07465    65.537219    102754.61   -29687.727    6233.2611   -23454.466 
   26750    302.88493    78.243012    102373.86   -29797.293    6312.6744   -23484.619 
   27000    301.53048   -36.462307     102330.3   -29888.415    6284.4451    -23603.97 
   27250    302.25517   -81.631644    102515.64   -29758.307     6299.549   -23458.758 
   27500    301.00253    20.597442    102767.12    -29605.91    6273.4418   -23332.469 
   27750    297.34419    74.184569    102250.87   -29852.885    6197.1952   -23655.689 
   28000    298.55412   -130.03826    102904.61   -29865.019    6222.4123   -23642.607 
   28250     304.4923   -33.103623    102211.47   -29721.071    6346.1748   -23374.897 
   28500    297.71385    23.837961    103245.93   -29559.229    6204.8996   -23354.329 
   28750    300.27317    36.772729    101919.14   -29805.383    6258.2405   -23547.142 
   29000    304.33141     220.2641     101973.1   -29825.682    6342.8217    -23482.86 
   29250    303.21703   -174.72407    102101.92   -29789.675    6319.5958   -23470.079 
   29500    299.99221   -569.89303    102645.51    -29722.26    6252.3848   -23469.875 
   29750    299.84581   -28.273588    102209.85   -29948.509    6249.3336   -23699.175 
   30000    303.10841    -38.96248    102823.36   -29736.767    6317.3322   -23419.435 
   30250    305.89988    408.84274    102628.72   -29889.303    6375.5113   -23513.792 
   30500     299.7071   -189.93951    101964.22   -29795.342    6246.4425     -23548.9 
   30750    302.44546   -144.46161    103140.03   -29659.088     6303.515   -23355.573 
   31000    299.77782    203.78613       102060   -29939.396    6247.9165    -23691.48 
   31250    299.99284    -201.6457    102573.22   -29850.304     6252.398   -23597.906 
   31500    299.63816    15.508131    102590.57   -29754.525    6245.0057    -23509.52 
   31750    304.65331   -64.881278     102595.3   -29803.825    6349.5307   -23454.294 
   32000    298.45575    383.72701    101707.25   -29901.791    6220.3622   -23681.429 
   32250    299.46728   -97.289648    101956.21   -29964.772    6241.4443   -23723.327 
   32500     302.7803    261.02179     102136.2   -29855.324    6310.4938    -23544.83 
   32750     293.2429   -82.935765    102681.82   -29687.381    6111.7169   -23575.665 
   33000    300.81052    44.286055    102365.48   -29817.179    6269.4398    -23547.74 
   33250    304.27521   -143.52539    102399.34   -29784.429    6341.6503   -23442.779 
   33500    303.45975   -266.68091    102847.82   -29751.862    6324.6548   -23427.207 
   33750    302.41832   -153.98833    102355.26   -29809.694    6302.9494   -23506.744 
   34000    298.20748    203.62061    102577.87    -29831.35    6215.1877   -23616.162 
   34250    298.26796   -116.41711    103395.32   -29777.216    6216.4483   -23560.768 
   34500    297.30568    128.30505    102637.62   -29699.551    6196.3927   -23503.159 
   34750    297.63295   -143.04703    102590.59   -29761.254    6203.2136    -23558.04 
   35000    299.60902    82.876036    101671.72   -29894.811    6244.3985   -23650.413 
   35250    299.76053    116.41826    102260.35   -29766.592    6247.5562   -23519.035 
   35500    301.58861   -66.057136     101779.1   -29934.169    6285.6568   -23648.512 
   35750    297.30195     93.27483    102761.98   -29635.946    6196.3149   -23439.631 
   36000    300.59523     -69.7192    102703.73   -29802.706    6264.9529   -23537.753 
   36250    301.85682    71.292455    103171.96   -29669.563    6291.2467   -23378.316 
   36500    301.58394    7.6103498    102845.88   -29736.933    6285.5593   -23451.374 
   36750    303.20102   -225.06387    103274.83   -29754.644    6319.2623   -23435.381 
   37000    300.19458    356.83405    102573.94    -29817.78    6256.6026   -23561.177 
   37250    307.22177    52.285816    102532.37   -29807.258     6403.062   -23404.196 
   37500    301.16907   -176.69715    102818.33   -29701.443    6276.9126   -23424.531 
   37750    299.44134   -110.64173    101621.51   -29872.444    6240.9037   -23631.541 
   38000     299.0858    129.10515     101473.2   -29871.712    6233.4936   -23638.218 
   38250    301.01144   -67.563453     102572.4   -29751.187    6273.6273    -23477.56 
   38500    299.12773    161.62089    101573.29   -29958.077    6234.3675    -23723.71 
   38750    303.91857   -201.21514    102921.85   -29805.765    6334.2174   -23471.548 
   39000    302.40102    158.76763    102771.62   -29707.633    6302.5888   -23405.045 
   39250    296.23459    187.31504    102423.88   -29856.374    6174.0692   -23682.305 
   39500    301.94726   -526.38218    103110.56   -29682.402    6293.1316   -23389.271 
   39750    301.71338    85.757475    102492.62   -29710.637    6288.2572    -23422.38 
   40000     302.2471    166.55349    102061.99   -29816.146    6299.3808   -23516.765 
   40250    297.01748    230.46531    101778.04   -29946.638     6190.386   -23756.252 
   40500    303.03039   -38.616099    101241.45   -29977.986    6315.7061    -23662.28 
   40750    301.24171    15.230425    102617.19    -29768.24    6278.4266   -23489.813 
   41000    303.89324   -72.118075    102414.15   -29745.884    6333.6894   -23412.195 
   41250    306.66244    81.752775    102526.72   -29795.171    6391.4046   -23403.767 
   41500    298.99386     260.2493     102515.3   -29692.411    6231.5774   -23460.834 
   41750    301.81603    152.69661    101610.98   -29853.776    6290.3966   -23563.379 
   42000    301.77029    174.23309    102161.12   -29803.792    6289.4432   -23514.349 
   42250    304.43178    495.92335    102484.64   -29696.857    6344.9134   -23351.943 
   42500    297.58208   -252.55269    102803.38   -29762.869    6202.1533   -23560.715 
   42750    298.24422   -44.222939    102339.39   -29757.842    6215.9536   -23541.889 
   43000    297.93479   -265.95597     102218.6   -29769.031    6209.5043   -23559.527 
   43250    304.87698   -207.31408    102179.69   -29880.381    6354.1922   -23526.189 
   43500    298.45234   -50.769362    102995.94   -29699.381    6220.2911    -23479.09 
   43750    305.78363    22.075238    102716.76   -29718.693    6373.0885   -23345.604 
   44000    300.25771   -114.45846    102645.44   -29711.919    6257.9182   -23454.001 
   44250    299.13848   -44.972934    102446.12   -29733.095    6234.5916   -23498.503 
   44500    301.31827     648.5748    101951.99   -29706.646    6280.0223   -23426.623 
   44750    302.02114   -279.13907    102804.81   -29762.448    6294.6714   -23467.776 
   45000    291.42682    -197.0724    102342.57   -29728.672    6073.8665   -23654.805 
   45250    294.05605   -187.94449    103072.19   -29719.821    6128.6645   -23591.156 
   45500    295.45024   -27.025773    102704.37   -29610.375     6157.722   -23452.653 
   45750    300.20679    231.50308    102380.65   -29723.829     6256.857   -23466.972 
   46000    302.74806    99.840583    102924.05   -29749.716    6309.8218   -23439.895 
   46250    300.86424   -71.016414     103330.8   -29628.975    6270.5595   -23358.415 
   46500    295.88196   -218.78773    103348.38   -29784.584    6166.7198   -23617.864 
   46750    299.16063   -377.24358    103883.53   -29753.157    6235.0532   -23518.104 
   47000    299.54099    12.113728     103575.8   -29752.004    6242.9805   -23509.024 
   47250    296.31133   -241.11432    102291.92   -29895.428    6175.6686    -23719.76 
   47500    297.12179   -57.150541    102429.29   -29773.617    6192.5601   -23581.057 
   47750    304.95935    100.18386    102320.35   -29841.441    6355.9092   -23485.531 
   48000    298.02718    127.26312    103350.03   -29635.958    6211.4301   -23424.528 
   48250    298.10945    127.81276    102816.24   -29752.464    6213.1446   -23539.319 
   48500    298.35442   -153.36751    102595.53   -29624.338    6218.2503   -23406.088 
   48750    303.37917    82.647662    103086.57   -29748.023    6322.9752   -23425.047 
   49000    300.65586    54.439474    102339.31   -29872.146    6266.2164    -23605.93 
   49250    295.24941    161.14482    102628.06    -29754.31    6153.5362   -23600.774 
   49500    299.19743    213.05985    102297.75   -29789.683    6235.8202   -23553.863 
   49750    298.16026     180.5455     102152.1   -29839.942    6214.2035   -23625.738 
   50000    294.76697    165.65731    101933.29   -29815.914    6143.4813   -23672.433 
   50250    304.98737    328.84625     102025.7   -29806.792    6356.4931   -23450.299 
   50500    303.02041   -18.902128     102327.3   -29791.386    6315.4979   -23475.888 
   50750     300.0032    137.19951    101796.24     -29748.3    6252.6138   -23495.686 
   51000     299.1363     98.71779    102709.64   -29710.155     6234.546   -23475.609 
   51250     299.7517    -66.58801    102776.66   -29791.016    6247.3721   -23543.644 
   51500    300.82947   -209.51076    103433.71    -29793.59    6269.8349   -23523.755 
   51750    302.60861    74.493646    103302.85   -29666.013    6306.9154   -23359.098 
   52000    298.78043   -196.11936    103208.69   -29639.466     6227.129   -23412.337 
   52250    297.03836    226.76508    102436.89   -29771.983    6190.8211   -23581.162 
   52500    300.01013   -250.55337    102601.35   -29924.298    6252.7582    -23671.54 
   52750    300.66465    296.33619     102775.8   -29898.427    6266.3996   -23632.027 
   53000    297.02542    9.6681323    101982.02   -29802.849    6190.5514   -23612.298 
   53250     299.1509     156.4724    101769.48   -29911.015    6234.8503   -23676.165 
   53500     297.0814   -17.917825    102551.62   -29762.703    6191.7182   -23570.985 
   53750    302.67002    -13.55008    102305.48   -29798.623    6308.1953   -23490.428 
   54000    304.95656    61.969948     102675.6   -29722.508    6355.8509   -23366.657 
   54250     295.2143    226.28757    101798.43   -29838.996    6152.8044   -23686.192 
   54500    296.58687    15.659573    102896.58   -29712.896    6181.4113   -23531.484 
   54750    299.40372   -120.41816    102838.26    -29804.64    6240.1196    -23564.52 
   55000    299.75109    12.157608     102284.3   -29859.738    6247.3594   -23612.379 
   55250    303.51052    -148.9922    103290.65   -29653.268    6325.7127   -23327.556 
   55500    303.33184    167.29904    102319.53   -29807.489    6321.9889     -23485.5 
   55750     299.3005   -229.18582    102988.27   -29719.201    6237.9683   -23481.233 
   56000    301.51436    161.58535    102465.52   -29803.822    6284.1092   -23519.713 
   56250    295.20424    115.95872    102594.75   -29754.524    6152.5947    -23601.93 
   56500    302.09911   -128.39443    102914.17   -29698.719    6296.2965   -23402.422 
   56750     297.8537    191.41309     102158.4   -29724.764    6207.8144    -23516.95 
   57000     299.1319   -127.77322    102262.89   -29752.007    6234.4543   -23517.553 
   57250    302.69195    86.300476    102302.69   -29668.687    6308.6523   -23360.035 
   57500     304.5912   -31.137803    102370.82   -29799.394    6348.2362   -23451.158 
   57750     302.1163    10.263572    102940.78   -29911.486    6296.6546   -23614.832 
   58000     297.9496   -41.683798    102426.78   -29790.364    6209.8131   -23580.551 
   58250    301.53035    190.44066    102619.24    -29577.65    6284.4424   -23293.208 
   58500    304.03304    29.995456    102362.79   -29726.846    6336.6032   -23390.242 
   58750    298.16625    56.530305    103405.17   -29593.367    6214.3284   -23379.038 
   59000    300.30619   -318.44575    102957.25   -29803.585    6258.9287   -23544.657 
   59250    295.90447    12.087882    102663.06   -29826.479    6167.1888    -23659.29 
   59500    304.10123    7.3981045    103021.19   -29663.397    6338.0242   -23325.373 
   59750    298.07861    8.8530398    102463.25   -29745.274    6212.5019   -23532.772 
   60000     301.9621    71.115044    102794.34   -29662.196    6293.4409   -23368.755 
   60250    301.07782     190.0113    102810.82   -29666.885    6275.0109   -23391.874 
   60500    304.17959   -183.15783    102828.15   -29822.847    6339.6575    -23483.19 
   60750    297.01971    71.261126     102866.7   -29729.152    6190.4325    -23538.72 
   61000    301.67128   -131.24267    101926.05   -30010.217    6287.3798   -23722.838 
   61250    301.44786   -328.46601    103235.84   -29792.697    6282.7232   -23509.974 
   61500    302.67171    71.213527    101786.06   -29892.856    6308.2305   -23584.625 
   61750    299.38468   -41.876838    103310.42   -29763.018    6239.7227   -23523.295 
   62000    300.61364    287.68483    103062.07   -29539.375    6265.3365   -23274.038 
   62250    299.12687   -253.29987    103259.99   -29706.048    6234.3494   -23471.698 
   62500    297.26647    200.30408    102172.02   -29776.023    6195.5755   -23580.447 
   62750    295.38131    233.76471     102810.2   -29690.494    6156.2851   -23534.209 
   63000    302.09349    17.464594    102297.65   -29929.712    6296.1793   -23633.533 
   63250    301.65169    223.73827    102534.48   -29690.998    6286.9714   -23404.027 
   63500    296.33953   -44.363774    102900.33   -29737.162    6176.2562   -23560.906 
   63750     302.4605   -211.96028    102262.59   -29870.213    6303.8285   -23566.385 
   64000    299.99287   -74.089735    101881.03   -29958.121    6252.3986   -23705.723 
   64250      296.555    -75.76374    103116.94   -29803.851     6180.747   -23623.104 
   64500    297.21136    2.3264393     102505.5   -29645.037    6194.4268    -23450.61 
   64750    303.75667    77.701129    102622.54   -29705.239     6330.843   -23374.396 
   65000    297.26009    214.02111    101070.27   -29860.531    6195.4425   -23665.089 
   65250    295.24923    1.1914049     101652.2   -29729.933    6153.5324     -23576.4 
   65500    299.15087   -66.979619    103542.06   -29637.498    6234.8498   -23402.648 
   65750    298.53099   -219.30955    103735.25   -29700.342    6221.9302   -23478.412 
   66000      300.428    74.797474    102865.32   -29703.503    6261.4675   -23442.035 
   66250     297.1234   -215.80936    103289.09   -29728.031    6192.5936   -23535.438 
   66500    298.98473   -7.4801716    103105.11   -29799.499    6231.3871   -23568.112 
   66750    298.22752    70.689796    102534.98   -29709.123    6215.6055   -23493.517 
   67000    297.81378   -419.20036    102690.61   -29699.948    6206.9823   -23492.966 
   67250    302.29803    74.580905    101915.29    -29699.42    6300.4423   -23398.978 
   67500    301.46634   -214.65703    102370.88   -29944.895    6283.1084   -23661.786 
   67750    302.12302   -126.62591    102244.61   -29848.721    6296.7948   -23551.926 
   68000    299.23942    106.99457    102129.55    -29796.43    6236.6954   -23559.735 
   68250    300.78471   -4.5628638    102368.15   -29661.327     6268.902   -23392.425 
   68500     302.8869    169.46294    102482.77   -29707.961    6312.7154   -23395.246 
   68750     300.7429    241.67357    102238.69   -29705.169    6268.0305   -23437.139 
   69000    298.29154    309.00025    102070.08   -29690.481    6216.9397   -23473.541 
   69250     297.7996    145.03351    102360.11   -29757.843    6206.6868   -23551.157 
   69500    302.57485    198.64728    102853.56   -29666.086    6306.2118   -23359.874 
   69750     300.9474   -18.696738    102249.37   -29648.378    6272.2927   -23376.085 
   70000     301.5819   -51.668364    103147.89    -29540.59    6285.5168   -23255.073 
   70250    298.29276    197.02831    101545.24   -29813.616    6216.9653   -23596.651 
   70500    300.32328    233.65884    103058.99    -29643.79    6259.2849   -23384.505 
   70750    299.17194   -179.61162    102248.68   -29863.441    6235.2889   -23628.152 
   71000    300.69361    210.25085    102559.33   -29734.402    6267.0033   -23467.398 
   71250    297.14215    15.003087    103547.59   -29677.262    6192.9844   -23484.278 
   71500    300.14401    453.32285    102380.65   -29772.822    6255.5487   -23517.273 
   71750    299.76524     60.02352    101884.67   -29953.712    6247.6543   -23706.058 
   72000    299.51842    -95.93255    103559.36   -29754.248    6242.5102   -23511.738 
   72250    300.88629   -150.62561    101977.02   -29919.255    6271.0191   -23648.236 
   72500    302.49962   -171.06085    102879.35    -29623.66    6304.6438   -23319.016 
   72750    299.67252    113.01676    102412.31   -29781.484    6245.7218   -23535.762 
   73000     297.6026   -116.84887    102683.93   -29636.437    6202.5809   -23433.857 
   73250    300.71281   -110.60486    102161.11   -29696.562    6267.4034   -23429.159 
   73500    295.54366    123.69346    102241.03   -29766.819    6159.6688    -23607.15 
   73750    295.92701     34.64666    101690.63   -29982.079    6167.6586    -23814.42 
   74000    299.10377   -376.83166    102711.43   -29789.789    6233.8681   -23555.921 
   74250    300.30251   -206.13742    102880.27    -29693.42     6258.852   -23434.568 
   74500    299.34159    4.6416846    102526.23   -29735.772    6238.8247   -23496.948 
   74750    294.67287    503.11646     101119.5   -29913.472      6141.52   -23771.952 
   75000    302.27336    63.574645    101932.01   -30033.237    6299.9282   -23733.308 
   75250    301.35581   -70.946913    102781.16   -29822.296    6280.8047   -23541.491 
   75500     304.8856    288.11668    102419.01   -29676.005    6354.3719   -23321.633 
   75750    305.23988   -76.825806    102772.22   -29681.796    6361.7557    -23320.04 
   76000    298.53132   -157.50469    102088.11   -29903.977    6221.9372    -23682.04 
   76250    299.00605    289.00088    102154.14   -29728.118    6231.8313   -23496.287 
   76500    292.59282    428.36614    102029.71   -29745.369    6098.1681   -23647.201 
   76750    297.88638    14.050591    102189.99   -29774.825    6208.4954   -23566.329 
   77000    302.81517   -83.110825     102699.1   -29732.906    6311.2204   -23421.686 
   77250    299.86307    311.14631    102109.18   -29628.783    6249.6933    -23379.09 
   77500    300.67768   -149.86366    102709.66   -29771.714    6266.6712   -23505.042 
   77750    304.87354   -119.06374    103316.65   -29749.904    6354.1205   -23395.783 
   78000    294.46415   -194.25373    102517.61   -29837.495      6137.17   -23700.325 
   78250    297.37173    79.574149    102044.38   -29932.039    6197.7693    -23734.27 
   78500    303.95465    137.52249    102297.83   -29815.586    6334.9692   -23480.617 
   78750    301.91628    363.52669    101514.44   -29871.447    6292.4859   -23578.961 
   79000    301.51471    174.04119    101731.65    -29785.26    6284.1165   -23501.144 
   79250    298.71618    139.65918    102232.67   -29741.984      6225.79   -23516.194 
   79500    295.36052   -79.017823     102819.5   -29700.696    6155.8519   -23544.844 
   79750    299.60041   -250.22595    102020.87   -29850.532     6244.219   -23606.313 
   80000    302.67466   -61.947132    102072.77   -29729.012    6308.2919   -23420.721 
   80250    300.80827  -0.54935761    102042.42   -29796.076    6269.3929   -23526.683 
   80500    304.36398   -74.502217    103266.27   -29695.394    6343.5005   -23351.893 
   80750    300.56929   -111.07376    102830.66   -29750.811    6264.4123   -23486.398 
   81000    300.66787    266.56709    102357.08   -29818.763    6266.4667   -23552.296 
   81250    302.56177   -126.05695    102576.36    -29918.18    6305.9391   -23612.241 
   81500    307.68647   -39.648865    102460.76   -29776.179    6412.7472   -23363.432 
   81750    302.36311   -194.55874    102549.94   -29585.116    6301.7987   -23283.317 
   82000    294.98178    210.23312    101922.27   -29811.644    6147.9583   -23663.686 
   82250    295.19173   -39.979315    102855.49   -29765.671    6152.3341   -23613.337 
   82500     299.7584    240.33418    102149.31   -29720.256    6247.5117   -23472.744 
   82750    298.35676   -94.021605    102596.88   -29810.777    6218.2991   -23592.478 
   83000    298.35142    34.527212    102103.04   -29957.515    6218.1877   -23739.327 
   83250    302.04097    84.530867    102521.95   -29874.468    6295.0847   -23579.383 
   83500    302.24174   -97.466543    102983.61   -29729.334     6299.269   -23430.065 
   83750    298.74638      52.3865    102116.76   -29850.823    6226.4195   -23624.403 
   84000    298.27963   -107.72161    102643.75   -29823.959    6216.6914   -23607.268 
   84250    301.34398     306.3716    101919.59   -29762.093    6280.5582   -23481.535 
   84500    302.59655    173.19182    102531.12   -29873.651     6306.664   -23566.987 
   84750    303.46602    314.66909     102451.5   -29876.545    6324.7854   -23551.759 
   85000     298.0542   -81.535973    102675.26   -29864.615    6211.9932   -23652.622 
   85250    304.19982    27.761626    102671.96   -29643.688    6340.0791   -23303.609 
   85500    302.46448   -129.94734    102692.04   -29697.898    6303.9113   -23393.987 
   85750    300.68216   -16.002687    103291.51   -29699.915    6266.7647    -23433.15 
   86000    301.80586   -51.784063    102751.27   -29889.364    6290.1845   -23599.179 
   86250    300.72161    309.26688    102783.65   -29655.888    6267.5868   -23388.301 
   86500    297.02002    83.532283    101826.31   -29994.252     6190.439   -23803.813 
   86750    302.34146    127.74482     102708.1   -29670.018    6301.3474   -23368.671 
   87000    301.36116    169.49602    102296.06   -29752.865    6280.9163   -23471.949 
   87250    298.22105    101.50542    102305.01   -29706.527    6215.4707   -23491.056 
   87500    303.17642   -156.52504    102511.83   -29810.483    6318.7495   -23491.733 
   87750    297.44407   -42.032532    103176.56   -29748.462    6199.2768   -23549.185 
   88000    300.52849   -78.503573    102326.56   -29685.221    6263.5619   -23421.659 
   88250    301.30099   -85.692189    102901.67   -29721.606    6279.6623   -23441.943 
   88500    299.87747   -71.239231    101964.87   -29952.399    6249.9934   -23702.406 
   88750    300.43331    -102.1275    102728.98   -29666.931    6261.5781   -23405.353 
   89000    301.69543   -171.39212    103150.98   -29713.726    6287.8829   -23425.843 
   89250    301.49317     275.2569    102034.89   -29853.843    6283.6676   -23570.175 
   89500     301.9687    204.53587    102731.43   -29765.216    6293.5784   -23471.638 
   89750    299.24982    304.73122    102446.63   -29738.045     6236.912   -23501.133 
   90000    302.29768    154.42442    102896.38   -29703.455     6300.435    -23403.02 
   90250    298.92222    73.618606    103016.83   -29593.835    6230.0843   -23363.751 
   90500    306.58791     227.0858    102571.48   -29753.767    6389.8512   -23363.916 
   90750    296.74392   -206.05895    102789.96   -29804.421    6184.6846   -23619.737 
   91000    298.62328    25.726722    101823.25   -29712.621    6223.8538   -23488.767 
   91250    301.39071    95.538503    102871.15   -29754.491    6281.5322   -23472.958 
   91500    300.53378    163.08503    102922.13   -29490.939    6263.6722   -23227.267 
   91750    300.91427     12.87879    102059.74   -29803.547    6271.6022   -23531.945 
   92000    297.84031    -237.2088    102703.45   -29694.561    6207.5353   -23487.026 
   92250     299.4315    38.138091    102445.15    -29662.07    6240.6986   -23421.371 
   92500    300.60158    190.13623    101916.26   -29793.548    6265.0851   -23528.463 
   92750    298.55014    4.8352155    102944.33   -29664.247    6222.3294   -23441.917 
   93000    300.12066    -229.9528    103570.96   -29649.086     6255.062   -23394.024 
   93250    293.93971    130.89619    102635.26   -29736.981    6126.2396   -23610.742 
   93500    296.56629    108.36097    101809.24   -29785.759    6180.9824   -23604.776 
   93750    299.16647    353.90542    102529.88   -29738.275    6235.1748     -23503.1 
   94000     296.6754    298.07814    102711.63   -29727.016    6183.2564   -23543.759 
   94250    296.78754    25.007672    102615.59   -29693.599    6185.5937   -23508.006 
   94500    302.63355    157.27889    102636.57   -29687.202    6307.4351   -23379.767 
   94750    301.28945    356.57921     102773.8   -29637.219    6279.4216   -23357.798 
   95000     302.5986    261.35253    102307.88   -29809.535    6306.7068   -23502.828 
   95250    298.02514   -65.803442    102192.02   -29776.419    6211.3875   -23565.032 
   95500    297.34071   -65.539152    103347.18   -29737.538    6197.1226   -23540.415 
   95750    292.60344    146.77118    102687.09    -29637.75    6098.3894    -23539.36 
   96000    299.76244    191.43519    103264.33   -29655.603     6247.596   -23408.007 
   96250     300.4051    43.216502     102148.2   -29738.428    6260.9901   -23477.438 
   96500    303.88858    176.22081    103004.02   -29706.403    6333.5923    -23372.81 
   96750    306.10355    530.22655    102608.19   -29727.975    6379.7562   -23348.219 
   97000    298.94224    135.39175    103102.57   -29627.982    6230.5016    -23397.48 
   97250    300.81032    63.445408    102759.79   -29775.799    6269.4357   -23506.364 
   97500    298.87389   -81.790066    102399.45   -29921.311    6229.0769   -23692.234 
   97750    298.14837   -485.79981    103284.24   -29770.347    6213.9558   -23556.391 
   98000     302.0061   -205.97205    103374.98   -29655.931    6294.3579   -23361.573 
   98250    299.45584    469.07945    102564.65   -29769.766    6241.2059    -23528.56 
   98500    298.77087   -71.307338    102566.84   -29724.711    6226.9298   -23497.781 
   98750    298.18909   -85.636327    102163.55   -29739.911    6214.8046   -23525.106 
   99000    297.27086    49.076116    102879.42   -29712.439    6195.6669   -23516.772 
   99250    297.00497    131.46499    102013.96   -29764.676    6190.1252   -23574.551 
   99500    304.98249    -68.67898    102611.65   -29980.809    6356.3913   -23624.417 
   99750    299.70058    229.83876    102110.83   -29793.713    6246.3066   -23547.406 
  100000    298.25528   -53.604301    103474.99   -29597.309     6216.184   -23381.125 
  100250    300.64189    71.159031    103072.85   -29743.251    6265.9252   -23477.326 
  100500    305.06289     8.484304    103076.74   -29794.392     6358.067   -23436.325 
  100750    298.70001    71.978287    102180.52   -29806.505    6225.4529   -23581.053 
  101000    297.70937   -196.93324     103005.6   -29824.461    6204.8062   -23619.655 
  101250    300.41625   -90.716777    102548.05   -29739.109    6261.2226   -23477.887 
  101500    303.21667   -236.36478     102465.7   -29748.081    6319.5884   -23428.492 
  101750    298.21732   -474.74825    103210.28   -29851.375    6215.3929   -23635.982 
  102000    298.59571    201.91751     102273.6   -29867.176    6223.2793   -23643.896 
  102250    300.11343   -160.19042    102844.81   -29593.569    6254.9112   -23338.658 
  102500    302.94123    103.93184       102518   -29832.822    6313.8477   -23518.975 
  102750    299.46733   -161.18447    102215.87   -29858.402    6241.4454   -23616.956 
  103000    299.77132   -152.34137    102919.32   -29686.877     6247.781   -23439.096 
  103250    301.63811     23.43378    102644.05   -29804.865    6286.6883   -23518.176 
  103500     299.9554    412.62707    101921.54       -29836    6251.6177   -23584.382 
  103750    302.84367    437.64796    102461.68   -29741.853    6311.8145   -23430.039 
  104000    301.98304    26.749956    102653.59   -29569.696    6293.8774   -23275.819 
  104250    294.22801    62.193168    101800.95   -29763.763    6132.2483   -23631.515 
  104500    299.94578    -198.6647    103046.06   -29763.944    6251.4171   -23512.527 
  104750    302.30124   -102.50866    103229.38   -29586.508    6300.5092   -23285.998 
  105000       297.23    270.06882    102437.15   -29675.424    6194.8152   -23480.609 
  105001    297.69228    99.790684    102477.56   -29684.724    6204.4501   -23480.274 
Loop time of 11805.2 on 1 procs (1 MPI x 1 OpenMP) for 100000 steps with 10337 atoms

Pair  time (%) = 8645.62 (73.2354)
Bond  time (%) = 121.68 (1.03073)
Kspce time (%) = 857.9 (7.26711)
Neigh time (%) = 1382.95 (11.7147)
Comm  time (%) = 35.3526 (0.299465)
Outpt time (%) = 0.45336 (0.00384033)
Other time (%) = 761.288 (6.44873)

FFT time (% of Kspce) = 213.127 (24.8428)
FFT Gflps 3d (1d only) = 1.47352 2.14389

Nlocal:    10337 ave 10337 max 10337 min
Histogram: 1 0 0 0 0 0 0 0 0 0
Nghost:    30148 ave 30148 max 30148 min
Histogram: 1 0 0 0 0 0 0 0 0 0
Neighs:    3.77038e+06 ave 3.77038e+06 max 3.77038e+06 min
Histogram: 1 0 0 0 0 0 0 0 0 0

Total # of neighbors = 3770381
Ave neighs/atom = 364.746
Ave special neighs/atom = 2.29119
Neighbor list builds = 11075
Dangerous builds = 0
write_restart   confout-1.data
PPPM initialization ...
  G vector (1/distance) = 0.261897
  grid = 45 18 18
  stencil order = 5
  estimated absolute RMS force accuracy = 0.0323096
  estimated relative force accuracy = 9.72995e-05
  using double precision FFTs
  3d grid and FFT values/proc = 31250 14580
