ITEM: TIMESTEP
5000
ITEM: NUMBER OF ATOMS
10337
ITEM: BOX BOUNDS pp pp pp
-65.4965 65.4965
-17.4657 17.4657
-17.4657 17.4657
ITEM: ATOMS id mol type x y z ix iy iz 
1 1 1 32.6909 -1.74535 -3.53158 0 0 0 
2 1 1 -7.93807 0.389756 0.135337 0 0 0 
3 1 1 59.0135 -3.49369 -0.12764 0 0 0 
4 1 1 48.0399 0.0652097 -3.41964 0 0 0 
5 1 1 61.2785 -3.42893 1.05438 0 0 0 
6 1 1 52.7069 0.116128 -2.21277 0 0 0 
7 1 1 50.3023 0.503617 -2.5855 0 0 0 
8 1 1 2.10719 -1.20631 -1.19773 0 0 0 
9 1 1 54.8216 -2.01241 -1.60688 0 0 0 
10 1 1 20.0619 -1.2548 -2.27393 0 0 0 
11 1 1 50.0498 -1.20994 -2.25218 0 0 0 
12 1 1 32.914 -0.3574 -4.71955 0 0 0 
13 1 1 52.3113 -1.61769 -2.04751 0 0 0 
14 1 1 55.1866 -0.270572 -1.64525 0 0 0 
15 1 1 57.6647 -0.608632 -0.785854 0 0 0 
16 1 1 17.9431 -1.97891 -1.419 0 0 0 
17 1 1 -13.0482 -0.379239 0.154719 0 0 0 
18 1 1 -60.6788 2.37433 -1.52678 0 0 0 
19 1 1 2.21707 0.656878 -1.28602 0 0 0 
20 1 1 47.7892 -1.46586 -2.44145 0 0 0 
21 1 1 59.8521 -1.96701 -0.373779 0 0 0 
22 1 2 52.3865 -0.697369 -1.50923 0 0 0 
23 1 2 47.6608 -0.365376 -2.44748 0 0 0 
24 1 2 50.0145 -0.229063 -1.76704 0 0 0 
25 1 2 59.3954 -2.58468 0.364959 0 0 0 
26 1 1 25.1108 -1.22821 -2.9837 0 0 0 
27 1 1 57.2655 -2.41539 -1.05916 0 0 0 
28 1 1 1.04397 0.648049 0.932935 0 0 0 
29 1 1 -58.2474 2.48573 -2.02038 0 0 0 
30 1 2 2.14184 -0.204056 -0.59702 0 0 0 
31 1 1 -40.5783 -1.97947 -1.02581 0 0 0 
32 1 1 59.901 -3.58776 2.32295 0 0 0 
33 1 1 48.3669 0.00217981 -0.398361 0 0 0 
34 1 2 32.7221 -0.638852 -3.69492 0 0 0 
35 1 2 54.8022 -1.1257 -0.978113 0 0 0 
36 1 1 22.2264 -0.369804 -3.28331 0 0 0 
37 1 1 31.3418 -0.671552 -2.01507 0 0 0 
38 1 2 57.2993 -1.55488 -0.330905 0 0 0 
39 1 2 0.913965 -0.207844 0.302994 0 0 0 
40 1 2 31.4183 -0.160559 -2.98321 0 0 0 
41 1 1 29.9539 -1.33069 -4.03232 0 0 0 
42 1 1 53.2485 -1.4423 0.356974 0 0 0 
43 1 1 35.3822 -0.830294 -4.54625 0 0 0 
44 1 1 55.4326 -2.3289 0.791827 0 0 0 
45 1 1 -27.7679 -2.56719 -1.75823 0 0 0 
46 1 1 57.5355 -2.48146 1.56819 0 0 0 
47 1 2 48.6091 0.217523 -1.41997 0 0 0 
48 1 1 50.893 -0.844084 0.162253 0 0 0 
49 1 1 34.0584 -0.561226 -1.79262 0 0 0 
50 1 1 4.43597 -1.78572 -0.79202 0 0 0 
51 1 2 55.8399 -1.39408 0.145336 0 0 0 
52 1 2 33.9684 -0.281875 -2.87543 0 0 0 
53 1 2 58.1568 -1.81778 0.898878 0 0 0 
54 1 1 0.916849 -1.09719 0.892727 0 0 0 
55 1 2 60.375 -2.98241 1.51657 0 0 0 
56 1 2 53.4828 -0.751329 -0.408538 0 0 0 
57 1 1 37.6336 -0.943387 -4.51639 0 0 0 
58 1 1 -10.8429 0.254679 0.653281 0 0 0 
59 1 2 51.1996 -0.222244 -0.735648 0 0 0 
60 1 1 31.5565 0.936795 -2.79685 0 0 0 
61 1 1 22.6023 -1.29816 -1.9201 0 0 0 
62 1 1 34.3014 0.801493 -2.96596 0 0 0 
63 1 1 40.4528 -2.37837 -3.28071 0 0 0 
64 1 1 53.5088 0.284575 0.0275429 0 0 0 
65 1 1 55.7403 -0.572024 0.790342 0 0 0 
66 1 1 48.6553 1.36874 -1.50595 0 0 0 
67 1 1 51.3177 0.783987 -0.356875 0 0 0 
68 1 1 58.3621 -0.883645 1.38455 0 0 0 
69 1 1 -5.58076 -0.591382 -0.679772 0 0 0 
70 1 1 60.7469 -2.05197 2.01715 0 0 0 
71 1 1 24.9308 0.272488 -3.87399 0 0 0 
72 1 1 45.2641 -1.55187 -3.13061 0 0 0 
73 1 1 -0.472572 -0.830676 -1.26495 0 0 0 
74 1 1 17.7632 -1.47122 0.21417 0 0 0 
75 1 1 45.3177 0.104389 -4.08566 0 0 0 
76 1 1 -7.88772 -1.34376 -0.516682 0 0 0 
77 1 1 20.4048 -1.39749 -0.6076 0 0 0 
78 1 1 -10.2874 -1.01726 -0.534924 0 0 0 
79 1 1 42.625 0.0106927 -4.25377 0 0 0 
80 1 1 37.5888 -2.43527 -3.42514 0 0 0 
81 1 1 5.2383 -0.22137 -0.970736 0 0 0 
82 1 1 -27.8897 -0.87608 -1.12379 0 0 0 
83 1 1 40.2674 -1.01777 -4.49255 0 0 0 
84 1 1 27.6305 -0.184746 -4.19325 0 0 0 
85 1 1 -43.1902 -1.90252 -0.608341 0 0 0 
86 1 1 35.1672 -2.14363 -3.3492 0 0 0 
87 1 1 29.9361 0.395124 -4.48471 0 0 0 
88 1 1 -12.6454 -1.93698 -0.455249 0 0 0 
89 1 2 17.7148 -1.14132 -0.828213 0 0 0 
90 1 2 45.1083 -0.39849 -3.12125 0 0 0 
91 1 1 -58.0119 3.75587 -0.845282 0 0 0 
92 1 1 -3.09488 0.658642 -0.348776 0 0 0 
93 1 2 37.6278 -1.29665 -3.45513 0 0 0 
94 1 2 22.4808 -0.265763 -2.2173 0 0 0 
95 1 1 -0.624852 0.881933 -0.783353 0 0 0 
96 1 2 35.222 -1.02917 -3.42513 0 0 0 
97 1 2 20.0998 -0.605548 -1.36577 0 0 0 
98 1 1 -5.30727 0.742831 0.340645 0 0 0 
99 1 1 43.0356 -1.65698 -3.76963 0 0 0 
100 1 2 30.0486 -0.366997 -3.63193 0 0 0 
101 1 2 -0.485689 -0.182557 -0.380493 0 0 0 
102 1 1 27.5161 -1.26526 -2.98403 0 0 0 
103 1 1 45.9743 0.0156011 -1.09674 0 0 0 
104 1 2 25.0055 -0.0880494 -2.81063 0 0 0 
105 1 1 -3.0934 -1.15037 -0.982517 0 0 0 
106 1 2 42.6607 -0.6673 -3.42196 0 0 0 
107 1 1 -60.2942 3.9155 -1.97666 0 0 0 
108 1 2 27.5022 -0.25152 -3.09231 0 0 0 
109 1 1 3.23373 -0.626762 1.35268 0 0 0 
110 1 2 -10.5336 -0.812322 0.496804 0 0 0 
111 1 2 40.1692 -1.33322 -3.39904 0 0 0 
112 1 1 18.9309 0.477384 0.0615499 0 0 0 
113 1 2 -8.00357 -0.638611 0.41409 0 0 0 
114 1 1 -35.4596 -3.31998 -1.41404 0 0 0 
115 1 2 4.70999 -0.839702 -0.263844 0 0 0 
116 1 1 38.9445 -1.04573 -1.56905 0 0 0 
117 1 1 7.17761 -1.47538 -0.579114 0 0 0 
118 1 2 -12.9879 -1.49242 0.427271 0 0 0 
119 1 1 43.6621 -0.479982 -1.43475 0 0 0 
120 1 1 41.3503 -0.931159 -1.62094 0 0 0 
121 1 2 18.788 0.0231347 -0.880161 0 0 0 
122 1 2 -27.868 -1.98841 -0.85685 0 0 0 
123 1 1 -11.2708 -2.65768 1.51693 0 0 0 
124 1 1 36.5216 -0.835011 -1.63637 0 0 0 
125 1 2 3.42855 -0.183265 0.268179 0 0 0 
126 1 2 36.4581 -0.576208 -2.73848 0 0 0 
127 1 2 -58.6169 2.88959 -1.04331 0 0 0 
128 1 1 5.04681 -2.0468 1.45681 0 0 0 
129 1 1 29.2461 -0.622814 -1.6783 0 0 0 
130 1 1 -37.8755 -1.63186 -0.89817 0 0 0 
131 1 2 46.2441 0.169968 -2.19294 0 0 0 
132 1 2 -5.41238 -0.382092 0.315605 0 0 0 
133 1 1 26.674 0.553534 -1.39056 0 0 0 
134 1 2 41.3442 -0.615837 -2.65563 0 0 0 
135 1 1 -29.1185 -3.38969 0.130564 0 0 0 
136 1 2 38.8945 -0.820526 -2.72028 0 0 0 
137 1 1 24.0552 0.0818317 -0.861551 0 0 0 
138 1 2 -2.99975 -0.506643 -0.105515 0 0 0 
139 1 1 21.8825 0.293176 -0.35695 0 0 0 
140 1 2 43.7785 -0.0562273 -2.50131 0 0 0 
141 1 1 -25.1764 -1.26098 -1.28959 0 0 0 
142 1 1 8.11548 -4.71459 0.754287 0 0 0 
143 1 1 3.70568 0.872372 0.482384 0 0 0 
144 1 1 -30.5659 -2.45559 -1.81338 0 0 0 
145 1 1 46.3647 1.22257 -2.42409 0 0 0 
146 1 2 -60.088 3.24656 -1.14316 0 0 0 
147 1 1 43.7359 1.02547 -2.30902 0 0 0 
148 1 2 5.61795 -1.32451 0.825691 0 0 0 
149 1 1 41.1753 0.470561 -2.50415 0 0 0 
150 1 1 -26.7333 -3.22603 0.591178 0 0 0 
151 1 2 -29.1572 -2.36618 -0.136655 0 0 0 
152 1 2 29.0136 0.0148714 -2.59972 0 0 0 
153 1 1 36.5752 0.45637 -2.84787 0 0 0 
154 1 2 -11.6284 -1.62475 1.23776 0 0 0 
155 1 1 38.8822 0.194595 -2.69115 0 0 0 
156 1 2 23.821 0.396934 -1.86266 0 0 0 
157 1 1 -9.2093 -1.93842 1.77137 0 0 0 
158 1 2 21.3484 0.311765 -1.3521 0 0 0 
159 1 1 -6.48553 -1.73749 1.67921 0 0 0 
160 1 2 26.4359 0.574145 -2.46075 0 0 0 
161 1 1 -1.33615 -1.73722 0.855087 0 0 0 
162 1 1 21.1675 1.40395 -1.51216 0 0 0 
163 1 1 -3.97703 -1.96568 1.03531 0 0 0 
164 1 1 11.2465 -2.59254 0.552729 0 0 0 
165 1 1 -60.6498 3.52382 -0.232426 0 0 0 
166 1 1 18.7515 0.894603 -1.64585 0 0 0 
167 1 1 29.2238 1.03911 -2.26683 0 0 0 
168 1 2 -9.20535 -0.939728 1.23985 0 0 0 
169 1 1 5.90558 -0.492894 1.57332 0 0 0 
170 1 2 -1.58489 -0.711611 0.507242 0 0 0 
171 1 2 -26.6927 -2.3032 0.0683167 0 0 0 
172 1 1 26.4273 1.55184 -2.86655 0 0 0 
173 1 1 23.7767 1.52806 -1.84011 0 0 0 
174 1 1 16.0962 -2.57367 -0.221627 0 0 0 
175 1 2 -6.6471 -0.767337 1.13189 0 0 0 
176 1 1 15.6381 -2.56902 -1.85401 0 0 0 
177 1 1 -22.9949 -0.961129 -0.971074 0 0 0 
178 1 1 -56.9098 0.494711 -1.4571 0 0 0 
179 1 1 14.2145 -4.08475 -1.40946 0 0 0 
180 1 1 9.40766 -3.95418 1.69339 0 0 0 
181 1 2 -4.08578 -0.881562 0.844619 0 0 0 
182 1 1 -29.2131 -1.73284 0.816371 0 0 0 
183 1 1 11.1771 -4.25764 0.890049 0 0 0 
184 1 1 -1.55793 -0.0865021 1.42947 0 0 0 
185 1 1 6.25859 -2.95222 -0.234018 0 0 0 
186 1 1 -3.92352 -0.621867 1.84277 0 0 0 
187 1 2 15.5645 -1.94921 -0.981938 0 0 0 
188 1 1 -11.6431 -1.18641 2.26887 0 0 0 
189 1 2 8.67167 -3.80821 0.823823 0 0 0 
190 1 1 -26.5956 -1.55809 0.819999 0 0 0 
191 1 2 6.7592 -2.14262 0.236114 0 0 0 
192 1 1 13.9842 -3.93959 0.253805 0 0 0 
193 1 1 -6.63856 0.0621247 1.87649 0 0 0 
194 1 1 16.119 0.316816 -0.679459 0 0 0 
195 1 1 -38.1395 -3.40636 -1.25724 0 0 0 
196 1 1 -9.12623 -0.0834879 2.05147 0 0 0 
197 1 2 13.5322 -3.52439 -0.694893 0 0 0 
198 1 1 -20.2657 -2.15859 -1.80435 0 0 0 
199 1 2 11.0614 -3.53376 0.0386492 0 0 0 
200 1 1 9.11039 -3.04797 -1.09564 0 0 0 
201 1 1 -15.3036 -1.60929 -0.686446 0 0 0 
202 1 1 13.7316 -1.60805 0.245598 0 0 0 
203 1 1 -35.4626 -1.54311 -0.824531 0 0 0 
204 1 1 -42.8805 -3.58061 -0.649633 0 0 0 
205 1 1 11.7965 -3.78826 -1.98926 0 0 0 
206 1 1 7.46418 -2.69615 2.32369 0 0 0 
207 1 1 -15.2867 -0.195935 0.478476 0 0 0 
208 1 2 7.83216 -2.57373 1.25067 0 0 0 
209 1 1 -17.8454 -0.466312 -0.473038 0 0 0 
210 1 1 -40.6023 -3.70385 -0.949755 0 0 0 
211 1 2 16.3682 -0.615717 -1.23573 0 0 0 
212 1 2 12.1107 -4.00642 -0.983452 0 0 0 
213 1 1 -56.1654 2.10036 -1.02404 0 0 0 
214 1 1 -22.8903 -2.56229 -1.70273 0 0 0 
215 1 2 9.58425 -3.70979 -0.379013 0 0 0 
216 1 2 13.997 -2.02553 -0.676304 0 0 0 
217 1 1 -33.2609 -1.21328 -0.778073 0 0 0 
218 1 1 16.2797 -0.297594 -2.32994 0 0 0 
219 1 1 -20.4155 -0.583236 -0.950703 0 0 0 
220 1 1 -25.4011 -2.98176 -1.70958 0 0 0 
221 1 1 13.4691 -1.3849 -1.48985 0 0 0 
222 1 1 12.1221 -5.02758 -0.985842 0 0 0 
223 1 1 -30.6683 -0.898265 -1.00471 0 0 0 
224 1 2 -43.0152 -2.74269 0.0731287 0 0 0 
225 1 1 8.38596 -1.67713 1.43965 0 0 0 
226 1 2 -15.4337 -1.28526 0.345614 0 0 0 
227 1 1 9.53745 -4.68751 -0.839195 0 0 0 
228 1 2 -37.9921 -2.64675 -0.401375 0 0 0 
229 1 2 -22.9703 -2.00833 -0.72102 0 0 0 
230 1 2 -40.5631 -2.76436 -0.306783 0 0 0 
231 1 2 -25.3893 -2.26823 -0.818405 0 0 0 
232 1 2 -30.4902 -2.00159 -0.854776 0 0 0 
233 1 1 -17.4352 -2.17183 -1.10615 0 0 0 
234 1 1 -32.9016 -2.62831 -1.77338 0 0 0 
235 1 2 -35.5146 -2.64742 -0.547502 0 0 0 
236 1 1 -14.1792 -2.90487 1.39846 0 0 0 
237 1 2 -17.8295 -1.56944 -0.21555 0 0 0 
238 1 2 -33.045 -2.25567 -0.721195 0 0 0 
239 1 2 -20.4147 -1.71952 -0.827551 0 0 0 
240 1 1 -58.7078 0.878719 0.0657686 0 0 0 
241 1 1 -41.6122 -3.46329 1.44226 0 0 0 
242 1 1 -21.4053 -3.31411 0.123592 0 0 0 
243 1 2 -56.7509 1.26165 -0.679034 0 0 0 
244 1 1 -54.1494 0.835503 -1.1579 0 0 0 
245 1 1 -16.6879 -2.80517 1.13887 0 0 0 
246 1 1 -19.2213 -2.94365 0.519921 0 0 0 
247 1 2 -41.659 -2.57049 0.746593 0 0 0 
248 1 2 -58.0441 1.78471 -0.0388701 0 0 0 
249 1 1 -24.0728 -3.48567 0.42586 0 0 0 
250 1 1 -56.3214 -0.627654 0.37585 0 0 0 
251 1 2 -24.1771 -2.46875 0.0710612 0 0 0 
252 1 2 -14.2535 -1.85033 1.14037 0 0 0 
253 1 1 -31.5783 -3.3339 0.530813 0 0 0 
254 1 2 -19.2548 -1.97054 0.183985 0 0 0 
255 1 1 -33.9741 -3.86758 0.412441 0 0 0 
256 1 1 -36.7091 -3.71076 0.901399 0 0 0 
257 1 2 -21.6036 -2.2724 -0.0261866 0 0 0 
258 1 1 -39.176 -3.6033 1.02734 0 0 0 
259 1 2 -16.7993 -1.77577 0.914695 0 0 0 
260 1 1 -51.9492 -0.773583 -1.64581 0 0 0 
261 1 1 -14.1967 -1.35627 2.09674 0 0 0 
262 1 1 -57.8664 2.18218 0.990288 0 0 0 
263 1 1 -16.966 -1.14223 1.82069 0 0 0 
264 1 2 -55.84 0.381127 0.22719 0 0 0 
265 1 1 -19.4621 -1.30134 1.12826 0 0 0 
266 1 2 -31.6995 -2.39877 0.0073766 0 0 0 
267 1 1 -24.2884 -1.85111 1.02159 0 0 0 
268 1 1 -21.5706 -1.75764 0.974858 0 0 0 
269 1 2 -36.7317 -2.7483 0.379049 0 0 0 
270 1 2 -39.2372 -2.70651 0.405081 0 0 0 
271 1 2 -34.1698 -2.83052 0.181748 0 0 0 
272 1 1 -39.2212 -1.93317 1.15576 0 0 0 
273 1 1 -50.301 -3.6854 -1.1398 0 0 0 
274 1 1 -41.5092 -1.71527 1.35953 0 0 0 
275 1 1 -31.6303 -1.69614 0.903847 0 0 0 
276 1 1 -55.3677 0.788488 1.11532 0 0 0 
277 1 1 -34.2344 -2.25917 1.10371 0 0 0 
278 1 1 -36.6709 -1.92947 1.11116 0 0 0 
279 1 1 -45.2765 -4.20806 -0.494513 0 0 0 
280 1 1 -45.0901 -2.46677 -0.947122 0 0 0 
281 1 1 -47.4887 -2.3362 -1.6087 0 0 0 
282 1 1 -52.8776 -2.22019 -1.8305 0 0 0 
283 1 1 -50.2069 -2.08696 -1.85225 0 0 0 
284 1 1 -54.9979 -0.605799 -1.65237 0 0 0 
285 1 2 -45.3553 -3.15645 -0.131516 0 0 0 
286 1 2 -52.4803 -1.46886 -1.02722 0 0 0 
287 1 2 -54.6373 -0.0600315 -0.712679 0 0 0 
288 1 1 -47.9046 -3.95189 -0.992759 0 0 0 
289 1 1 -44.0652 -3.771 1.6013 0 0 0 
290 1 2 -47.7698 -2.8492 -0.68279 0 0 0 
291 1 2 -50.2702 -2.58808 -0.894946 0 0 0 
292 1 1 -51.9729 -3.13503 0.23905 0 0 0 
293 1 1 -46.9884 -3.40204 1.2989 0 0 0 
294 1 1 -49.0436 -2.85202 0.910019 0 0 0 
295 1 1 -54.139 -1.85885 0.233953 0 0 0 
296 1 2 -53.5841 -1.01107 -0.0846693 0 0 0 
297 1 2 -44.2402 -2.98027 0.923601 0 0 0 
298 1 2 -49.0772 -2.33809 -0.116336 0 0 0 
299 1 2 -51.5196 -2.20913 -0.153215 0 0 0 
300 1 2 -46.7416 -2.78558 0.446753 0 0 0 
301 1 1 -44.4212 -2.18793 1.60131 0 0 0 
302 1 1 -46.7746 -1.81313 0.847048 0 0 0 
303 1 1 -49.0304 -1.28396 0.094591 0 0 0 
304 1 1 -53.134 -0.535924 0.804062 0 0 0 
305 1 1 -51.1791 -1.71639 0.741876 0 0 0 
306 2 3 -64.8201 -16.137 -14.8629 1 0 0 
307 2 4 -64.6553 -16.6624 -15.6553 1 0 0 
308 2 4 -64.5248 -16.6333 -14.0898 1 0 0 
309 3 3 63.064 -16.7833 -12.0348 0 0 0 
310 3 4 63.1642 -17.0369 -12.9604 0 0 0 
311 3 4 62.9227 17.3542 -11.505 0 -1 0 
312 4 3 56.1362 16.8824 -10.6889 0 -1 0 
313 4 4 56.3532 15.9515 -10.8215 0 -1 0 
314 4 4 56.6523 17.4162 -11.3052 0 -1 0 
315 5 3 52.9443 -16.5133 -11.4482 0 0 0 
316 5 4 53.684 -17.0752 -11.7096 0 0 0 
317 5 4 52.5229 -16.892 -10.6671 0 0 0 
318 6 3 49.1396 -16.1048 -11.5061 0 0 0 
319 6 4 49.8778 -15.6818 -11.9614 0 0 0 
320 6 4 49.4807 -16.8092 -10.9417 0 0 0 
321 7 3 46.9887 -16.6483 -10.254 0 0 0 
322 7 4 47.4817 -16.0939 -10.8712 0 0 0 
323 7 4 47.2813 -16.4545 -9.35512 0 0 0 
324 8 3 45.7989 15.5778 -9.76779 0 -1 0 
325 8 4 45.9975 16.5091 -9.9239 0 -1 0 
326 8 4 46.5184 15.0398 -10.12 0 -1 0 
327 9 3 40.6292 -15.6393 -11.61 0 0 0 
328 9 4 39.9002 -15.9048 -12.1837 0 0 0 
329 9 4 40.7165 -16.2817 -10.8952 0 0 0 
330 10 3 38.5112 -16.3625 -8.47603 0 0 0 
331 10 4 39.3654 -15.9561 -8.66656 0 0 0 
332 10 4 38.537 -17.2888 -8.74507 0 0 0 
333 11 3 32.605 -16.7393 -5.62169 0 0 0 
334 11 4 32.7458 -16.7997 -6.57442 0 0 0 
335 11 4 32.1225 -15.9268 -5.42632 0 0 0 
336 12 3 32.5661 -16.0238 -9.64498 0 0 0 
337 12 4 32.9379 -16.8471 -9.98442 0 0 0 
338 12 4 33.0199 -15.7881 -8.82665 0 0 0 
339 13 3 22.2535 -12.6886 -11.8859 0 0 0 
340 13 4 23.1524 -13.0221 -11.9952 0 0 0 
341 13 4 21.8379 -13.1431 -11.1431 0 0 0 
342 14 3 21.4697 -14.1544 -14.1787 0 0 0 
343 14 4 21.9729 -13.5215 -13.652 0 0 0 
344 14 4 21.9707 -14.3691 -14.975 0 0 0 
345 15 3 20.0398 -15.8527 -12.5734 0 0 0 
346 15 4 20.3542 -15.0551 -13.0164 0 0 0 
347 15 4 20.4701 -16.6213 -12.9675 0 0 0 
348 16 3 17.7372 -15.1701 -11.455 0 0 0 
349 16 4 18.3526 -15.6672 -12.0074 0 0 0 
350 16 4 17.9129 -14.227 -11.5591 0 0 0 
351 17 3 15.3882 -16.1484 -10.307 0 0 0 
352 17 4 16.1657 -15.6793 -10.6333 0 0 0 
353 17 4 14.9149 -16.5312 -11.0557 0 0 0 
354 18 3 13.281 -14.1138 -10.0986 0 0 0 
355 18 4 13.2185 -15.0643 -10.2529 0 0 0 
356 18 4 14.2019 -13.8835 -9.92544 0 0 0 
357 19 3 9.13247 -15.7299 -9.77739 0 0 0 
358 19 4 8.90859 -15.26 -8.96482 0 0 0 
359 19 4 8.35565 -15.7563 -10.3492 0 0 0 
360 20 3 2.50732 -16.8363 -8.70878 0 0 0 
361 20 4 2.96025 17.3492 -9.12062 0 -1 0 
362 20 4 3.09992 -16.0748 -8.70026 0 0 0 
363 21 3 -0.0290091 16.8549 -9.36776 0 -1 0 
364 21 4 0.424149 -17.3776 -8.88077 0 0 0 
365 21 4 0.544434 16.08 -9.41163 0 -1 0 
366 22 3 -1.80955 -16.2964 -10.6527 0 0 0 
367 22 4 -1.42009 -16.9344 -10.0424 0 0 0 
368 22 4 -1.13272 -16.0033 -11.2749 0 0 0 
369 23 3 -7.34787 -15.4862 -11.4573 0 0 0 
370 23 4 -6.46143 -15.4333 -11.0797 0 0 0 
371 23 4 -7.32681 -15.1406 -12.358 0 0 0 
372 24 3 -9.91665 -16.0308 -10.4514 0 0 0 
373 24 4 -9.09015 -15.7525 -10.8644 0 0 0 
374 24 4 -9.93189 -16.9942 -10.3971 0 0 0 
375 25 3 -16.4419 -16.1511 -7.88273 0 0 0 
376 25 4 -16.1885 -15.6709 -8.68047 0 0 0 
377 25 4 -15.7851 -15.9867 -7.19517 0 0 0 
378 26 3 -18.6737 -13.4896 -10.3373 0 0 0 
379 26 4 -17.9125 -14.0408 -10.1184 0 0 0 
380 26 4 -19.3916 -14.0546 -10.648 0 0 0 
381 27 3 -24.7203 -15.3611 -10.3466 0 0 0 
382 27 4 -24.1837 -15.2451 -9.55304 0 0 0 
383 27 4 -25.039 -16.2713 -10.3801 0 0 0 
384 28 3 -27.3878 -14.865 -9.33996 0 0 0 
385 28 4 -26.5695 -14.8605 -9.85135 0 0 0 
386 28 4 -27.2271 -14.4446 -8.48634 0 0 0 
387 29 3 -27.459 -12.7855 -11.0693 0 0 0 
388 29 4 -27.7325 -13.5495 -10.547 0 0 0 
389 29 4 -27.9402 -12.7882 -11.9057 0 0 0 
390 30 3 -36.97 -14.7261 -11.2093 0 0 0 
391 30 4 -37.2438 -15.0131 -12.089 0 0 0 
392 30 4 -36.0117 -14.8114 -11.1351 0 0 0 
393 31 3 -35.8114 -11.8752 -10.0152 0 0 0 
394 31 4 -36.3436 -12.4935 -10.5306 0 0 0 
395 31 4 -36.3609 -11.49 -9.32175 0 0 0 
396 32 3 -42.7922 -14.687 -11.5385 0 0 0 
397 32 4 -43.125 -15.582 -11.6773 0 0 0 
398 32 4 -41.8337 -14.7211 -11.4325 0 0 0 
399 33 3 -43.2006 -12.1183 -11.3611 0 0 0 
400 33 4 -42.8894 -13.0069 -11.5724 0 0 0 
401 33 4 -44.0341 -11.9597 -11.8207 0 0 0 
402 34 3 -43.5019 -15.1936 -8.54987 0 0 0 
403 34 4 -43.2558 -14.9627 -9.45391 0 0 0 
404 34 4 -42.7206 -15.516 -8.08418 0 0 0 
405 35 3 -50.0298 16.2493 -9.60801 0 -1 0 
406 35 4 -49.379 16.1813 -10.3172 0 -1 0 
407 35 4 -49.615 16.659 -8.83913 0 -1 0 
408 36 3 -51.9479 -15.4621 -9.12121 0 0 0 
409 36 4 -51.2929 -14.8202 -8.82094 0 0 0 
410 36 4 -51.5027 -16.1504 -9.63047 0 0 0 
411 37 3 -54.6798 16.5087 -9.67146 0 -1 0 
412 37 4 -53.7748 16.3018 -9.93476 0 -1 0 
413 37 4 -55.2428 16.5084 -10.4551 0 -1 0 
414 38 3 -61.9828 -16.2689 -8.14175 0 0 0 
415 38 4 -61.9812 -16.5779 -9.05591 0 0 0 
416 38 4 -61.1308 -16.4758 -7.73865 0 0 0 
417 39 3 -64.0117 16.9561 -12.9302 0 -1 0 
418 39 4 -63.2311 17.0141 -12.3658 0 -1 0 
419 39 4 -64.4183 16.0885 -12.816 0 -1 0 
420 40 3 64.6874 -13.9332 -11.3987 0 0 0 
421 40 4 64.6956 -14.6858 -12.0025 0 0 0 
422 40 4 64.3071 -14.2103 -10.5562 0 0 0 
423 41 3 61.3238 -13.221 -11.6962 0 0 0 
424 41 4 61.8067 -12.4053 -11.5155 0 0 0 
425 41 4 61.8251 -13.7491 -12.3295 0 0 0 
426 42 3 57.2425 -14.5748 -13.7776 0 0 0 
427 42 4 57.2303 -14.7027 -14.7339 0 0 0 
428 42 4 57.8291 -15.23 -13.3804 0 0 0 
429 43 3 54.1661 -13.987 -10.9728 0 0 0 
430 43 4 54.88 -13.7241 -11.5664 0 0 0 
431 43 4 53.7361 -14.7745 -11.328 0 0 0 
432 44 3 49.4472 -13.9833 -9.37936 0 0 0 
433 44 4 49.4557 -14.641 -10.0854 0 0 0 
434 44 4 50.2906 -14.0138 -8.91143 0 0 0 
435 45 3 46.9485 -12.6988 -9.60685 0 0 0 
436 45 4 47.7417 -13.2385 -9.50381 0 0 0 
437 45 4 46.5811 -12.5105 -8.73464 0 0 0 
438 46 3 44.8323 -12.7051 -11.7385 0 0 0 
439 46 4 44.4456 -13.5801 -11.6117 0 0 0 
440 46 4 45.6608 -12.6534 -11.2465 0 0 0 
441 47 3 38.3295 -14.0873 -10.879 0 0 0 
442 47 4 39.1283 -14.5562 -11.1493 0 0 0 
443 47 4 38.4486 -13.7555 -9.98074 0 0 0 
444 48 3 36.1407 -15.3147 -9.62821 0 0 0 
445 48 4 36.4344 -14.4043 -9.7551 0 0 0 
446 48 4 36.8703 -15.8326 -9.26685 0 0 0 
447 49 3 34.3952 -15.9754 -7.50651 0 0 0 
448 49 4 34.835 -15.8514 -8.35643 0 0 0 
449 49 4 34.9224 -15.5557 -6.81578 0 0 0 
450 50 3 30.1804 -13.0622 -11.2847 0 0 0 
451 50 4 31.0445 -13.1219 -10.8592 0 0 0 
452 50 4 30.3053 -12.919 -12.2308 0 0 0 
453 51 3 26.236 -8.54064 -8.72505 0 0 0 
454 51 4 25.4875 -8.43495 -8.12532 0 0 0 
455 51 4 26.0608 -9.28091 -9.31875 0 0 0 
456 52 3 24.1192 -9.66347 -13.3521 0 0 0 
457 52 4 23.2959 -9.83211 -12.8778 0 0 0 
458 52 4 24.3518 -8.73188 -13.2562 0 0 0 
459 53 3 19.502 -10.7047 -12.8682 0 0 0 
460 53 4 20.1204 -10.9877 -12.1836 0 0 0 
461 53 4 19.1757 -11.4821 -13.3376 0 0 0 
462 54 3 16.3483 -9.86435 -12.6842 0 0 0 
463 54 4 17.079 -10.4063 -13.0061 0 0 0 
464 54 4 15.8425 -10.3712 -12.0373 0 0 0 
465 55 3 14.3619 -9.29145 -14.5563 0 0 0 
466 55 4 15.2523 -9.30071 -14.1844 0 0 0 
467 55 4 13.8217 -9.94413 -14.0943 0 0 0 
468 56 3 11.5924 -11.1053 -9.58549 0 0 0 
469 56 4 11.961 -11.9636 -9.82776 0 0 0 
470 56 4 11.0352 -11.2117 -8.80483 0 0 0 
471 57 3 9.16048 -13.3041 -11.6721 0 0 0 
472 57 4 9.17097 -12.3421 -11.5974 0 0 0 
473 57 4 9.96171 -13.6593 -11.2684 0 0 0 
474 58 3 7.07986 -15.4261 -11.5624 0 0 0 
475 58 4 7.70626 -14.6992 -11.6638 0 0 0 
476 58 4 6.50153 -15.4526 -12.3344 0 0 0 
477 59 3 -0.106434 -14.0658 -8.09016 0 0 0 
478 59 4 -0.534015 -14.3112 -7.26063 0 0 0 
479 59 4 0.434352 -13.28 -7.94439 0 0 0 
480 60 3 -2.58644 -13.8887 -9.65898 0 0 0 
481 60 4 -2.51277 -14.8022 -9.96129 0 0 0 
482 60 4 -1.93091 -13.7326 -8.96829 0 0 0 
483 61 3 -5.62287 -15.6324 -8.72074 0 0 0 
484 61 4 -5.14538 -16.4665 -8.80707 0 0 0 
485 61 4 -4.98933 -14.9047 -8.73596 0 0 0 
486 62 3 -9.64868 -11.1913 -10.319 0 0 0 
487 62 4 -10.0194 -11.1498 -9.42908 0 0 0 
488 62 4 -10.0419 -11.9369 -10.7887 0 0 0 
489 63 3 -12.9391 -12.086 -9.37284 0 0 0 
490 63 4 -12.7553 -13.0193 -9.53528 0 0 0 
491 63 4 -13.0132 -11.9413 -8.42166 0 0 0 
492 64 3 -16.0343 -13.7091 -9.5923 0 0 0 
493 64 4 -15.5504 -13.0736 -10.1336 0 0 0 
494 64 4 -16.1565 -13.3407 -8.70885 0 0 0 
495 65 3 -23.5113 -13.7932 -8.35406 0 0 0 
496 65 4 -24.1162 -13.1817 -8.79153 0 0 0 
497 65 4 -23.7409 -13.8467 -7.41833 0 0 0 
498 66 3 -24.4799 -12.3731 -10.5688 0 0 0 
499 66 4 -25.3238 -12.3648 -11.0366 0 0 0 
500 66 4 -24.0909 -13.2535 -10.6381 0 0 0 
501 67 3 -27.3691 -10.7172 -8.9507 0 0 0 
502 67 4 -27.0663 -11.2398 -9.70331 0 0 0 
503 67 4 -26.7206 -10.7858 -8.23939 0 0 0 
504 68 3 -30.779 -11.2305 -10.2492 0 0 0 
505 68 4 -30.5028 -10.4419 -10.732 0 0 0 
506 68 4 -30.7538 -11.0442 -9.30266 0 0 0 
507 69 3 -33.2496 -10.6722 -9.39141 0 0 0 
508 69 4 -32.6916 -11.1354 -10.028 0 0 0 
509 69 4 -34.1592 -10.9793 -9.48888 0 0 0 
510 70 3 -38.0268 -11.6023 -8.31112 0 0 0 
511 70 4 -38.0661 -11.5745 -7.34735 0 0 0 
512 70 4 -38.8944 -11.3754 -8.66759 0 0 0 
513 71 3 -43.6793 -10.3199 -9.22125 0 0 0 
514 71 4 -43.5545 -10.8241 -10.0345 0 0 0 
515 71 4 -43.1576 -9.50972 -9.27069 0 0 0 
516 72 3 -46.3311 -9.73816 -8.59613 0 0 0 
517 72 4 -45.5282 -10.1611 -8.92412 0 0 0 
518 72 4 -46.6672 -10.2419 -7.84484 0 0 0 
519 73 3 -47.2946 -12.6386 -7.31378 0 0 0 
520 73 4 -47.3316 -13.5733 -7.5509 0 0 0 
521 73 4 -47.6514 -12.5258 -6.42432 0 0 0 
522 74 3 -50.0172 -13.0325 -8.03287 0 0 0 
523 74 4 -49.1515 -12.6071 -8.06051 0 0 0 
524 74 4 -50.2247 -13.2634 -7.11921 0 0 0 
525 75 3 -54.1283 -13.7089 -9.14701 0 0 0 
526 75 4 -54.8484 -14.0539 -8.60525 0 0 0 
527 75 4 -53.3745 -14.3083 -9.08618 0 0 0 
528 76 3 -57.4414 -10.6049 -9.96123 0 0 0 
529 76 4 -56.6373 -10.8161 -10.4511 0 0 0 
530 76 4 -57.7461 -11.3965 -9.50125 0 0 0 
531 77 3 -64.2914 -11.934 -12.2729 0 0 0 
532 77 4 -64.3131 -12.0245 -13.2334 0 0 0 
533 77 4 -64.7664 -12.6746 -11.8767 0 0 0 
534 78 3 63.4505 -10.9611 -11.856 0 0 0 
535 78 4 63.8704 -10.1448 -12.1536 0 0 0 
536 78 4 64.1321 -11.5707 -11.5479 0 0 0 
537 79 3 59.7247 -10.8276 -12.1114 0 0 0 
538 79 4 58.9951 -10.7894 -12.7417 0 0 0 
539 79 4 60.0395 -11.7377 -12.0499 0 0 0 
540 80 3 56.3546 -12.2375 -12.1637 0 0 0 
541 80 4 56.8356 -12.3655 -11.337 0 0 0 
542 80 4 56.5949 -12.9408 -12.7792 0 0 0 
543 81 3 54.0814 -11.1905 -10.7601 0 0 0 
544 81 4 54.9068 -10.8044 -11.0776 0 0 0 
545 81 4 53.9139 -12.0114 -11.2389 0 0 0 
546 82 3 52.2013 -8.99103 -11.1817 0 0 0 
547 82 4 52.7874 -9.75327 -11.2636 0 0 0 
548 82 4 51.3489 -9.28555 -10.8386 0 0 0 
549 83 3 47.1663 -10.2579 -10.8916 0 0 0 
550 83 4 48.0768 -9.94203 -10.9408 0 0 0 
551 83 4 47.1686 -11.1796 -10.6057 0 0 0 
552 84 3 44.6241 -9.71319 -11.721 0 0 0 
553 84 4 45.5764 -9.60078 -11.8289 0 0 0 
554 84 4 44.4286 -10.6522 -11.6153 0 0 0 
555 85 3 35.6005 -12.7445 -11.1545 0 0 0 
556 85 4 36.0226 -11.9456 -11.4931 0 0 0 
557 85 4 36.2329 -13.4726 -11.1889 0 0 0 
558 86 3 33.1384 -13.5502 -10.7535 0 0 0 
559 86 4 34.0639 -13.3641 -10.9533 0 0 0 
560 86 4 33.0279 -14.5014 -10.6342 0 0 0 
561 87 3 33.1066 -13.2518 -7.44657 0 0 0 
562 87 4 33.2465 -13.3027 -8.39999 0 0 0 
563 87 4 33.5024 -14.0265 -7.02911 0 0 0 
564 88 3 28.1113 -10.8019 -10.078 0 0 0 
565 88 4 27.477 -10.7638 -10.8042 0 0 0 
566 88 4 28.6868 -11.5663 -10.2033 0 0 0 
567 89 3 25.3989 -7.19623 -12.4649 0 0 0 
568 89 4 24.6692 -6.75777 -12.0106 0 0 0 
569 89 4 26.1762 -7.18634 -11.8932 0 0 0 
570 90 3 22.5213 -8.5486 -11.12 0 0 0 
571 90 4 22.2754 -7.68241 -10.7729 0 0 0 
572 90 4 23.3564 -8.82144 -10.7209 0 0 0 
573 91 3 19.5198 -8.57728 -10.8874 0 0 0 
574 91 4 20.4667 -8.49186 -11.0523 0 0 0 
575 91 4 19.1457 -9.2019 -11.5208 0 0 0 
576 92 3 17.4374 -7.02073 -12.034 0 0 0 
577 92 4 18.3204 -7.38201 -11.8894 0 0 0 
578 92 4 16.7928 -7.73707 -11.9839 0 0 0 
579 93 3 14.1033 -7.32145 -12.3198 0 0 0 
580 93 4 14.4577 -6.42638 -12.2534 0 0 0 
581 93 4 14.2108 -7.63549 -13.2258 0 0 0 
582 94 3 9.06769 -10.6696 -11.4794 0 0 0 
583 94 4 8.86633 -9.96688 -12.1093 0 0 0 
584 94 4 9.89772 -10.4627 -11.0328 0 0 0 
585 95 3 6.60224 -11.578 -10.239 0 0 0 
586 95 4 7.17283 -10.8195 -10.4131 0 0 0 
587 95 4 7.13688 -12.3813 -10.2449 0 0 0 
588 96 3 3.78627 -13.1756 -10.7281 0 0 0 
589 96 4 4.60846 -12.6706 -10.7151 0 0 0 
590 96 4 3.90605 -13.9841 -10.215 0 0 0 
591 97 3 1.23889 -12.5702 -9.86951 0 0 0 
592 97 4 2.0104 -12.5308 -10.4478 0 0 0 
593 97 4 0.948367 -13.4874 -9.79532 0 0 0 
594 98 3 -4.73397 -11.7967 -9.03519 0 0 0 
595 98 4 -4.35587 -11.574 -8.17577 0 0 0 
596 98 4 -4.04502 -12.1798 -9.59175 0 0 0 
597 99 3 -7.42801 -11.6141 -8.31161 0 0 0 
598 99 4 -6.51324 -11.8566 -8.50012 0 0 0 
599 99 4 -7.83925 -11.2863 -9.12069 0 0 0 
600 100 3 -11.1566 -8.50921 -10.8659 0 0 0 
601 100 4 -11.0515 -8.17571 -11.7653 0 0 0 
602 100 4 -10.8873 -9.4355 -10.8408 0 0 0 
603 101 3 -13.5852 -9.28256 -9.69144 0 0 0 
604 101 4 -12.8611 -8.74419 -10.0334 0 0 0 
605 101 4 -13.3207 -10.2105 -9.70555 0 0 0 
606 102 3 -16.9953 -8.82744 -8.53698 0 0 0 
607 102 4 -16.8264 -7.96538 -8.93636 0 0 0 
608 102 4 -16.6503 -9.51603 -9.1184 0 0 0 
609 103 3 -20.0004 -11.2908 -9.3681 0 0 0 
610 103 4 -19.8543 -11.018 -8.45411 0 0 0 
611 103 4 -19.3694 -11.9853 -9.59335 0 0 0 
612 104 3 -22.4253 -10.2008 -10.6845 0 0 0 
613 104 4 -21.5116 -10.5002 -10.6026 0 0 0 
614 104 4 -22.984 -10.9549 -10.909 0 0 0 
615 105 3 -29.3083 -9.08942 -9.93507 0 0 0 
616 105 4 -28.7506 -8.35693 -10.2241 0 0 0 
617 105 4 -28.7475 -9.84214 -9.71145 0 0 0 
618 106 3 -30.6784 -7.43146 -8.19474 0 0 0 
619 106 4 -29.9972 -7.85986 -8.72719 0 0 0 
620 106 4 -31.364 -8.07679 -7.98338 0 0 0 
621 107 3 -34.0738 -8.09466 -8.8935 0 0 0 
622 107 4 -34.3566 -8.00101 -9.81132 0 0 0 
623 107 4 -33.6009 -8.92992 -8.79416 0 0 0 
624 108 3 -36.9168 -8.12881 -8.0979 0 0 0 
625 108 4 -36.1273 -8.34344 -7.58625 0 0 0 
626 108 4 -37.6257 -8.73517 -7.85092 0 0 0 
627 109 3 -42.3926 -7.72472 -10.0816 0 0 0 
628 109 4 -41.4792 -7.76013 -9.77251 0 0 0 
629 109 4 -42.4843 -6.99639 -10.708 0 0 0 
630 110 3 -44.6225 -7.62344 -8.10013 0 0 0 
631 110 4 -43.9251 -7.28712 -8.67599 0 0 0 
632 110 4 -45.2452 -8.13777 -8.62823 0 0 0 
633 111 3 -48.9297 -9.55704 -9.02307 0 0 0 
634 111 4 -49.1342 -8.7842 -8.4826 0 0 0 
635 111 4 -47.9814 -9.7299 -8.97816 0 0 0 
636 112 3 -51.6474 -10.5192 -8.7708 0 0 0 
637 112 4 -50.9296 -10.1543 -9.30257 0 0 0 
638 112 4 -51.3394 -11.3244 -8.33731 0 0 0 
639 113 3 -54.7637 -11.0207 -10.2843 0 0 0 
640 113 4 -54.2367 -10.2159 -10.2084 0 0 0 
641 113 4 -54.2601 -11.7611 -9.92463 0 0 0 
642 114 3 -60.748 -9.36842 -8.81291 0 0 0 
643 114 4 -61.2221 -8.90945 -8.10885 0 0 0 
644 114 4 -60.0247 -8.80893 -9.12111 0 0 0 
645 115 3 -62.4209 -11.2079 -9.91779 0 0 0 
646 115 4 -61.6627 -10.6114 -9.9397 0 0 0 
647 115 4 -62.4849 -11.6658 -10.7648 0 0 0 
648 116 3 62.3118 -4.52124 -12.207 0 0 0 
649 116 4 63.0393 -4.3604 -11.5939 0 0 0 
650 116 4 62.5243 -4.12059 -13.0588 0 0 0 
651 117 3 60.4357 -2.59382 -11.6358 0 0 0 
652 117 4 61.1275 -3.26247 -11.7102 0 0 0 
653 117 4 59.5754 -3.01931 -11.7359 0 0 0 
654 118 3 58.0606 -4.10379 -11.2091 0 0 0 
655 118 4 57.6625 -3.40816 -11.7464 0 0 0 
656 118 4 57.3894 -4.76659 -11.0056 0 0 0 
657 119 3 50.5281 -3.41012 -12.8495 0 0 0 
658 119 4 51.3441 -3.08293 -12.4516 0 0 0 
659 119 4 50.3912 -2.96653 -13.6954 0 0 0 
660 120 3 52.4412 -6.53987 -12.4828 0 0 0 
661 120 4 51.5845 -6.30221 -12.1076 0 0 0 
662 120 4 52.5986 -7.48047 -12.3356 0 0 0 
663 121 3 44.3889 -5.61991 -12.6863 0 0 0 
664 121 4 44.2148 -4.69067 -12.4929 0 0 0 
665 121 4 44.9552 -5.67794 -13.4654 0 0 0 
666 122 3 43.882 -7.24111 -10.4455 0 0 0 
667 122 4 44.0509 -6.65096 -11.1901 0 0 0 
668 122 4 44.2436 -8.11274 -10.6472 0 0 0 
669 123 3 40.6997 -4.42865 -12.2667 0 0 0 
670 123 4 40.4996 -3.55311 -12.6196 0 0 0 
671 123 4 41.5308 -4.7383 -12.6469 0 0 0 
672 124 3 37.8986 -4.89405 -11.6557 0 0 0 
673 124 4 37.4865 -4.20452 -12.1904 0 0 0 
674 124 4 38.7362 -5.14819 -12.062 0 0 0 
675 125 3 32.3861 -5.34677 -14.1569 0 0 0 
676 125 4 32.6332 -4.57863 -13.6276 0 0 0 
677 125 4 33.1829 -5.73417 -14.5394 0 0 0 
678 126 3 31.0559 -6.01299 -11.7355 0 0 0 
679 126 4 30.2614 -5.46558 -11.7198 0 0 0 
680 126 4 31.539 -5.84219 -12.5532 0 0 0 
681 127 3 27.1754 -4.20367 -13.0766 0 0 0 
682 127 4 26.9008 -4.46661 -13.9635 0 0 0 
683 127 4 28.0385 -3.77536 -13.129 0 0 0 
684 128 3 24.0942 -5.22335 -10.9397 0 0 0 
685 128 4 23.815 -4.42077 -11.397 0 0 0 
686 128 4 25.0149 -5.12584 -10.6677 0 0 0 
687 129 3 22.5843 -6.4792 -9.22727 0 0 0 
688 129 4 21.926 -5.78001 -9.13273 0 0 0 
689 129 4 23.2822 -6.17551 -9.8205 0 0 0 
690 130 3 15.7561 -4.70752 -11.6413 0 0 0 
691 130 4 16.1112 -3.98898 -12.1787 0 0 0 
692 130 4 16.3387 -5.47317 -11.716 0 0 0 
693 131 3 11.5804 -6.13733 -11.0955 0 0 0 
694 131 4 11.8676 -5.23994 -10.8873 0 0 0 
695 131 4 12.2694 -6.57676 -11.6085 0 0 0 
696 132 3 9.44308 -7.3062 -10.1428 0 0 0 
697 132 4 9.44365 -7.56116 -11.0735 0 0 0 
698 132 4 10.0972 -6.60976 -10.0074 0 0 0 
699 133 3 6.77441 -7.62222 -10.5148 0 0 0 
700 133 4 7.1797 -6.8735 -10.0606 0 0 0 
701 133 4 7.40115 -7.97663 -11.1573 0 0 0 
702 134 3 1.79329 -7.94599 -10.5598 0 0 0 
703 134 4 1.46339 -7.0414 -10.6234 0 0 0 
704 134 4 2.7468 -7.94381 -10.7081 0 0 0 
705 135 3 -1.98929 -5.89125 -9.81978 0 0 0 
706 135 4 -1.77272 -4.96338 -9.97252 0 0 0 
707 135 4 -1.20058 -6.4267 -9.96942 0 0 0 
708 136 3 -5.60227 -7.55664 -12.5113 0 0 0 
709 136 4 -5.24715 -6.92446 -11.8746 0 0 0 
710 136 4 -5.3799 -8.45057 -12.2239 0 0 0 
711 137 3 -7.57328 -5.39415 -12.1637 0 0 0 
712 137 4 -6.63002 -5.5883 -12.1027 0 0 0 