ITEM: TIMESTEP
5000
ITEM: NUMBER OF ATOMS
12061
ITEM: BOX BOUNDS pp pp pp
-80.3498 80.3498
-16.07 16.07
-16.07 16.07
ITEM: ATOMS id mol type x y z ix iy iz 
1 1 1 -32.1401 -1.83007 -0.98029 0 0 0 
2 1 1 -32.3369 -0.496064 -2.102 0 0 0 
3 1 2 -31.5651 -1.05995 -1.68461 0 0 0 
4 1 1 -29.9228 -2.32138 -2.17036 0 0 0 
5 1 1 -29.9838 -0.902961 -3.23246 0 0 0 
6 1 2 -30.195 -1.22977 -2.13691 0 0 0 
7 1 1 -29.7068 0.66769 -1.49044 0 0 0 
8 1 1 -29.4982 -0.631385 -0.178291 0 0 0 
9 1 2 -29.3591 -0.346926 -1.24969 0 0 0 
10 1 1 -27.6914 -0.544063 -2.50985 0 0 0 
11 1 1 -27.7218 -1.73675 -0.961825 0 0 0 
12 1 2 -27.8617 -0.712037 -1.43252 0 0 0 
13 1 1 -25.8184 0.2313 -1.04315 0 0 0 
14 1 1 -27.2422 1.35448 -1.07846 0 0 0 
15 1 2 -26.8774 0.375754 -0.834188 0 0 0 
16 1 1 -26.9417 1.41563 1.06355 0 0 0 
17 1 1 -27.3276 -0.485144 1.10187 0 0 0 
18 1 2 -26.8598 0.394873 0.677511 0 0 0 
19 1 1 -24.6978 0.855004 0.544702 0 0 0 
20 1 1 -25.3329 0.250544 2.25638 0 0 0 
21 1 2 -25.3001 0.253144 1.21474 0 0 0 
22 1 1 -25.7847 -1.79265 0.772857 0 0 0 
23 1 1 -24.7515 -1.50906 2.07295 0 0 0 
24 1 2 -24.8672 -1.18299 1.00708 0 0 0 
25 1 1 -23.5929 -1.17567 -0.705778 0 0 0 
26 1 1 -22.658 -1.11663 0.745697 0 0 0 
27 1 2 -23.643 -1.58637 0.265694 0 0 0 
28 1 1 -24.5734 -3.72539 -0.132535 0 0 0 
29 1 1 -22.7717 -3.5542 -0.52701 0 0 0 
30 1 2 -23.6893 -3.15466 0.163454 0 0 0 
31 1 1 -23.6701 -3.50974 2.35432 0 0 0 
32 1 1 -23.6674 -4.92923 1.25317 0 0 0 
33 1 2 -23.2799 -3.94722 1.39332 0 0 0 
34 1 1 -21.3412 -4.80201 0.753391 0 0 0 
35 1 1 -21.3534 -3.20651 1.00017 0 0 0 
36 1 2 -21.7687 -4.07171 1.45097 0 0 0 
37 1 1 -21.8697 -3.60665 3.6653 0 0 0 
38 1 1 -21.0968 -5.05078 3.25935 0 0 0 
39 1 2 -21.168 -4.00618 2.94373 0 0 0 
40 1 1 -19.1412 -4.34432 3.46915 0 0 0 
41 1 1 -19.285 -3.26498 2.08915 0 0 0 
42 1 2 -19.8085 -3.51963 3.16959 0 0 0 
43 1 1 -20.0845 -2.42925 5.08153 0 0 0 
44 1 1 -18.6152 -2.0407 3.90997 0 0 0 
45 1 2 -19.7689 -2.35908 4.0053 0 0 0 
46 1 1 -21.3747 -1.52047 2.54364 0 0 0 
47 1 1 -21.3681 -0.836308 4.16854 0 0 0 
48 1 2 -20.7137 -1.28534 3.34253 0 0 0 
49 1 1 -19.7525 0.536758 3.77932 0 0 0 
50 1 1 -18.9709 -0.589924 2.50546 0 0 0 
51 1 2 -19.8923 -0.11968 2.93031 0 0 0 
52 1 1 -20.7191 0.108771 0.864248 0 0 0 
53 1 1 -21.8484 0.633402 1.87379 0 0 0 
54 1 2 -20.7133 0.543652 1.7794 0 0 0 
55 1 1 -19.8377 2.56718 2.42525 0 0 0 
56 1 1 -18.869 1.72553 1.41197 0 0 0 
57 1 2 -20.0778 1.96089 1.52961 0 0 0 
58 1 1 -21.6871 2.6829 0.351524 0 0 0 
59 1 1 -20.3102 3.86406 0.558587 0 0 0 
60 1 2 -20.733 2.79831 0.320917 0 0 0 
61 1 1 -19.6715 3.60797 -1.55773 0 0 0 
62 1 1 -21.2674 2.68864 -1.60132 0 0 0 
63 1 2 -20.2877 2.68819 -1.17211 0 0 0 
64 1 1 -18.6549 1.51047 -0.795052 0 0 0 
65 1 1 -19.9608 0.585626 -1.2724 0 0 0 
66 1 2 -19.4298 1.48727 -1.52808 0 0 0 
67 1 1 -18.0782 0.454438 -2.92644 0 0 0 
68 1 1 -19.2748 1.53475 -3.71407 0 0 0 
69 1 2 -18.6102 1.52296 -2.83395 0 0 0 
70 1 1 -17.2575 2.39479 -4.11614 0 0 0 
71 1 1 -17.9525 3.5429 -3.30062 0 0 0 
72 1 2 -17.5856 2.5643 -3.13515 0 0 0 
73 1 1 -16.0497 3.75911 -2.07757 0 0 0 
74 1 1 -16.617 2.39113 -1.32151 0 0 0 
75 1 2 -16.3501 2.67755 -2.28016 0 0 0 
76 1 1 -15.4414 0.796307 -2.59382 0 0 0 
77 1 1 -15.4204 1.73051 -4.02111 0 0 0 
78 1 2 -15.2131 1.80973 -2.87538 0 0 0 
79 1 1 -13.7585 3.2478 -1.88612 0 0 0 
80 1 1 -13.8855 1.78255 -1.11972 0 0 0 
81 1 2 -13.9689 2.13245 -2.08312 0 0 0 
82 1 1 -12.7256 0.415942 -2.60513 0 0 0 
83 1 1 -12.3287 1.99982 -3.51907 0 0 0 
84 1 2 -12.6452 1.56648 -2.51718 0 0 0 
85 1 1 -11.7129 3.12485 -1.36959 0 0 0 
86 1 1 -12.0525 1.38966 -0.510444 0 0 0 
87 1 2 -11.5669 1.97693 -1.40471 0 0 0 
88 1 1 -10.1528 0.273627 -1.68632 0 0 0 
89 1 1 -9.89032 1.71837 -2.59304 0 0 0 
90 1 2 -10.2598 1.2742 -1.63086 0 0 0 
91 1 1 -9.24041 2.38972 0.00458638 0 0 0 
92 1 1 -8.90234 0.686192 -0.136466 0 0 0 
93 1 2 -9.10575 1.59715 -0.656191 0 0 0 
94 1 1 -7.85412 0.869441 -2.14348 0 0 0 
95 1 1 -7.72423 2.57738 -1.92885 0 0 0 
96 1 2 -7.84978 1.66097 -1.30566 0 0 0 
97 1 1 -6.71869 2.46321 0.337564 0 0 0 
98 1 1 -6.79211 0.643513 0.229324 0 0 0 
99 1 2 -6.67928 1.55435 -0.326558 0 0 0 
100 1 1 -5.14585 2.66724 -1.43242 0 0 0 
101 1 1 -4.54402 1.68784 -0.0645751 0 0 0 
102 1 2 -5.25494 1.59602 -1.0774 0 0 0 
103 1 1 -5.33211 -0.720117 -1.72141 0 0 0 
104 1 1 -5.61379 0.521498 -3.10314 0 0 0 
105 1 2 -4.97497 0.473349 -2.18543 0 0 0 
106 1 1 -3.51302 -0.791067 -3.29368 0 0 0 
107 1 1 -3.29666 1.05316 -3.30198 0 0 0 
108 1 2 -3.48469 0.129447 -2.67093 0 0 0 
109 1 1 -1.46594 -0.0415585 -1.91947 0 0 0 
110 1 1 -2.31849 0.583382 -0.832205 0 0 0 
111 1 2 -2.42123 -0.200512 -1.62655 0 0 0 
112 1 1 -3.47318 -2.30988 -1.60635 0 0 0 
113 1 1 -1.73541 -2.29675 -1.57782 0 0 0 
114 1 2 -2.53695 -1.69337 -1.16175 0 0 0 
115 1 1 -1.7287 -2.24479 0.876209 0 0 0 
116 1 1 -3.10425 -1.13404 0.923238 0 0 0 
117 1 2 -2.71596 -2.01468 0.328474 0 0 0 
118 1 1 -3.04237 -4.27975 0.720287 0 0 0 
119 1 1 -3.49448 -2.84062 1.87409 0 0 0 
120 1 2 -3.53502 -3.31389 0.784233 0 0 0 
121 1 1 -5.29418 -2.47696 -0.276881 0 0 0 
122 1 1 -4.75065 -4.09167 -0.787718 0 0 0 
123 1 2 -4.95443 -3.42497 0.0752189 0 0 0 
124 1 1 -6.96654 -4.30833 0.1366 0 0 0 
125 1 1 -5.84261 -5.10478 1.34538 0 0 0 
126 1 2 -6.09241 -4.18135 0.835361 0 0 0 
127 1 1 -5.81751 -2.03678 1.7412 0 0 0 
128 1 1 -7.62261 -2.61084 1.37789 0 0 0 
129 1 2 -6.59811 -2.91731 1.74496 0 0 0 
130 1 1 -7.797 -3.91369 3.27864 0 0 0 
131 1 1 -5.93846 -4.17068 3.41262 0 0 0 
132 1 2 -6.77243 -3.43855 3.25342 0 0 0 
133 1 1 -6.70471 -1.31206 3.97365 0 0 0 
134 1 1 -8.04069 -2.10225 4.31871 0 0 0 
135 1 2 -6.95352 -2.2957 4.26812 0 0 0 
136 1 1 -5.66438 -3.55349 5.3811 0 0 0 
137 1 1 -7.00903 -3.06125 6.39216 0 0 0 
138 1 2 -6.33637 -2.67645 5.6485 0 0 0 
139 1 1 -5.75816 -0.809997 6.61451 0 0 0 
140 1 1 -4.73445 -2.12817 7.01409 0 0 0 
141 1 2 -5.33283 -1.66639 6.2263 0 0 0 
142 1 1 -3.79304 -2.27339 4.59424 0 0 0 
143 1 1 -4.65909 -0.58432 4.45731 0 0 0 
144 1 2 -4.14524 -1.24386 5.19587 0 0 0 
145 1 1 -2.40154 -1.2917 6.70288 0 0 0 
146 1 1 -2.80896 0.343317 6.4363 0 0 0 
147 1 2 -2.78765 -0.670526 5.89496 0 0 0 
148 1 1 -1.53553 -1.74093 4.5328 0 0 0 
149 1 1 -2.03042 -0.0648391 3.88561 0 0 0 
150 1 2 -1.7809 -0.657524 4.76909 0 0 0 
151 1 1 -0.208491 1.02618 5.25906 0 0 0 
152 1 1 0.0409593 -0.372618 6.06101 0 0 0 
153 1 2 -0.334188 -0.0100939 5.09507 0 0 0 
154 1 1 1.57109 -0.568502 4.39885 0 0 0 
155 1 1 0.453575 -1.86137 4.27678 0 0 0 
156 1 2 0.507846 -0.814665 4.04944 0 0 0 
157 1 1 0.958844 -0.772524 1.82213 0 0 0 
158 1 1 -0.79479 -0.439891 2.21829 0 0 0 
159 1 2 0.288518 -0.315597 2.58191 0 0 0 
160 1 1 1.76007 1.22791 2.5919 0 0 0 
161 1 1 0.102226 1.78641 3.03909 0 0 0 
162 1 2 0.722089 1.14217 2.32515 0 0 0 
163 1 1 -0.366695 1.62199 0.505973 0 0 0 
164 1 1 1.01232 2.70993 1.11181 0 0 0 
165 1 2 0.737172 1.76358 0.957872 0 0 0 
166 1 1 2.32792 1.21637 -0.505124 0 0 0 
167 1 1 0.987855 0.063964 -0.486428 0 0 0 
168 1 2 1.24102 1.13203 -0.415405 0 0 0 
169 1 1 1.37582 1.12019 -2.4377 0 0 0 
170 1 1 -0.113693 1.59923 -1.94428 0 0 0 
171 1 2 0.949419 1.78175 -1.64332 0 0 0 
172 1 1 0.991346 3.68575 -2.81777 0 0 0 
173 1 1 1.6496 3.96566 -1.16099 0 0 0 
174 1 2 1.52853 3.14578 -2.00513 0 0 0 
175 1 1 3.09804 1.86698 -3.02795 0 0 0 
176 1 1 3.46739 3.62083 -3.32792 0 0 0 
177 1 2 3.04639 2.87142 -2.55282 0 0 0 
178 1 1 4.32918 4.16671 -1.44617 0 0 0 
179 1 1 4.10404 2.85047 -0.476035 0 0 0 
180 1 2 4.14129 3.00689 -1.53085 0 0 0 
181 1 1 5.2032 1.37756 -2.40703 0 0 0 
182 1 1 5.67355 2.90052 -2.95621 0 0 0 
183 1 2 5.36864 2.38756 -2.13191 0 0 0 
184 1 1 6.50145 1.6398 -0.416043 0 0 0 
185 1 1 7.39646 1.70783 -1.96542 0 0 0 
186 1 2 6.6884 2.31514 -1.27419 0 0 0 
187 1 1 8.02155 4.14021 -1.71897 0 0 0 
188 1 1 6.6364 4.47732 -0.570211 0 0 0 
189 1 2 7.35676 3.69966 -0.824723 0 0 0 
190 1 1 9.05628 3.1303 0.590095 0 0 0 
191 1 1 8.55316 4.81304 0.643176 0 0 0 
192 1 2 8.07867 3.71823 0.44353 0 0 0 
193 1 1 7.08218 4.32437 2.33277 0 0 0 
194 1 1 6.21818 3.73007 1.0707 0 0 0 
195 1 2 7.13113 3.48917 1.56062 0 0 0 
196 1 1 7.70502 1.33426 1.21133 0 0 0 
197 1 1 8.43022 2.49777 2.59193 0 0 0 
198 1 2 7.41645 2.17622 2.08521 0 0 0 
199 1 1 6.19007 2.12827 4.04769 0 0 0 
200 1 1 5.29738 2.09458 2.63095 0 0 0 
201 1 2 6.24803 1.75153 3.02994 0 0 0 
202 1 1 6.99289 -0.20368 3.3497 0 0 0 
203 1 1 5.38574 0.0239543 4.07582 0 0 0 
204 1 2 6.05224 0.216249 3.19346 0 0 0 
205 1 1 5.19493 0.21344 1.10994 0 0 0 
206 1 1 6.34757 -1.11192 1.57636 0 0 0 
207 1 2 5.52772 -0.53745 1.91294 0 0 0 
208 1 1 4.96583 -2.34049 2.79396 0 0 0 
209 1 1 3.83275 -1.38673 2.93424 0 0 0 
210 1 2 4.61997 -1.62838 2.18706 0 0 0 
211 1 1 3.44281 -2.42602 0.312862 0 0 0 
212 1 1 3.56294 -3.29681 1.66987 0 0 0 
213 1 2 4.11217 -2.63857 1.23395 0 0 0 
214 1 1 5.10687 -3.98171 -0.298498 0 0 0 
215 1 1 6.08679 -2.8767 0.228581 0 0 0 
216 1 2 5.28722 -3.49811 0.685374 0 0 0 
217 1 1 6.14578 -4.08969 2.63142 0 0 0 
218 1 1 5.10333 -5.30106 1.75293 0 0 0 
219 1 2 5.95327 -4.44411 1.76036 0 0 0 
220 1 1 7.55335 -5.94918 1.94595 0 0 0 
221 1 1 7.10239 -5.51373 0.344801 0 0 0 
222 1 2 7.23951 -5.07396 1.29242 0 0 0 
223 1 1 8.00016 -2.91473 1.71496 0 0 0 
224 1 1 9.10523 -4.29028 1.91606 0 0 0 
225 1 2 8.26282 -3.9564 1.23591 0 0 0 
226 1 1 9.03681 -4.38464 -0.738579 0 0 0 
227 1 1 7.81063 -3.07909 -0.838816 0 0 0 
228 1 2 8.66383 -3.4109 -0.215268 0 0 0 
229 1 1 8.68572 -1.37089 0.116517 0 0 0 
230 1 1 10.1688 -2.24183 0.704341 0 0 0 
231 1 2 9.3914 -2.17673 -0.106286 0 0 0 
232 1 1 9.71877 -2.2399 -2.40402 0 0 0 
233 1 1 8.76636 -1.14167 -1.81576 0 0 0 
234 1 2 9.70495 -1.46674 -1.5702 0 0 0 
235 1 1 11.4014 -1.01308 -2.30297 0 0 0 
236 1 1 10.2491 0.269464 -2.8321 0 0 0 
237 1 2 10.5497 -0.315844 -2.00061 0 0 0 
238 1 1 9.66675 1.04548 -0.352093 0 0 0 
239 1 1 11.0686 0.552585 0.0825346 0 0 0 
240 1 2 10.6267 0.783805 -0.923907 0 0 0 
241 1 1 10.6343 2.37064 -2.39149 0 0 0 
242 1 1 11.5565 2.68117 -0.891191 0 0 0 
243 1 2 11.2913 1.93759 -1.64866 0 0 0 
244 1 1 12.9332 0.6783 -2.49336 0 0 0 
245 1 1 12.87 2.49584 -3.05916 0 0 0 
246 1 2 12.6237 1.75241 -2.21285 0 0 0 
247 1 1 13.9707 3.33366 -1.57568 0 0 0 
248 1 1 13.4021 2.55876 -0.115238 0 0 0 
249 1 2 13.7176 2.34829 -1.1268 0 0 0 
250 1 1 15.2355 0.622913 -1.23801 0 0 0 
251 1 1 15.5208 2.16166 -2.43376 0 0 0 
252 1 2 15.2198 1.72696 -1.40779 0 0 0 
253 1 1 16.4567 3.57398 -0.882682 0 0 0 
254 1 1 15.6201 2.89324 0.338655 0 0 0 
255 1 2 16.1804 2.57238 -0.50668 0 0 0 
256 1 1 17.5749 0.900893 -0.744818 0 0 0 
257 1 1 18.2814 2.12352 0.327724 0 0 0 
258 1 2 17.3328 1.72495 -0.0326605 0 0 0 
259 1 1 17.1027 1.53786 2.07518 0 0 0 
260 1 1 15.9911 0.622502 0.898402 0 0 0 
261 1 2 16.9786 0.970637 1.15081 0 0 0 
262 1 1 17.9488 -1.1139 1.70101 0 0 0 
263 1 1 18.3103 -0.504924 0.0536902 0 0 0 
264 1 2 18.0887 -0.175158 1.20605 0 0 0 
265 1 1 19.6005 1.33604 1.09491 0 0 0 
266 1 1 19.1851 0.84552 2.69268 0 0 0 
267 1 2 19.404 0.519741 1.74049 0 0 0 
268 1 1 21.4695 -0.11062 2.49982 0 0 0 
269 1 1 20.3085 -1.38583 2.4993 0 0 0 
270 1 2 20.5382 -0.532929 1.81841 0 0 0 
271 1 1 21.291 -2.02411 0.232516 0 0 0 
272 1 1 20.4648 -0.6835 -0.36427 0 0 0 
273 1 2 21.1699 -0.951671 0.434095 0 0 0 
274 1 1 22.592 0.741875 0.252369 0 0 0 
275 1 1 23.1951 -0.934793 0.707863 0 0 0 
276 1 2 22.5821 -0.327479 -0.071104 0 0 0 
277 1 1 21.7578 0.225474 -1.79466 0 0 0 
278 1 1 22.6945 -1.34107 -2.15994 0 0 0 
279 1 2 22.7282 -0.267119 -1.60904 0 0 0 
280 1 1 24.2641 0.455974 -3.07032 0 0 0 
281 1 1 24.4612 1.04338 -1.19236 0 0 0 
282 1 2 24.0956 0.353772 -1.96152 0 0 0 
283 1 1 25.0651 -1.33374 -0.706573 0 0 0 
284 1 1 25.0051 -1.66585 -2.43951 0 0 0 
285 1 2 25.1756 -0.89195 -1.74145 0 0 0 
286 1 1 26.8923 -1.17777 -2.89575 0 0 0 
287 1 1 26.3193 0.639492 -2.51163 0 0 0 
288 1 2 26.5103 -0.410459 -2.088 0 0 0 
289 1 1 27.0477 0.626313 -0.221552 0 0 0 
290 1 1 26.796 -1.06352 -0.0342812 0 0 0 
291 1 2 27.2497 -0.296137 -0.637534 0 0 0 
292 1 1 29.2447 -0.0856389 0.334198 0 0 0 
293 1 1 29.0787 -1.61117 -0.315383 0 0 0 
294 1 2 28.8721 -0.511623 -0.599097 0 0 0 
295 1 1 30.0302 -0.473731 -2.53829 0 0 0 
296 1 1 29.4607 1.05037 -2.14496 0 0 0 
297 1 2 29.8049 0.0706625 -1.68409 0 0 0 
298 1 1 31.0645 0.964366 -0.169641 0 0 0 
299 1 1 31.7822 -0.606899 -0.832593 0 0 0 
300 1 2 31.2341 0.253642 -1.02866 0 0 0 
301 1 1 31.7636 0.879893 -1.86995 0 0 0 
302 2 3 36.5878 14.5937 -13.7203 0 -1 0 
303 2 1 36.5339 14.0269 -14.4932 0 -1 0 
304 2 1 35.7072 14.9062 -13.4998 0 -1 0 
305 3 3 25.8365 -13.8254 -11.0488 0 0 0 
306 3 1 25.0811 -13.7355 -10.4632 0 0 0 
307 3 1 26.2854 -12.9792 -11.112 0 0 0 
308 4 3 28.0905 16.0005 -10.3489 0 -1 0 
309 4 1 28.9946 -15.8411 -10.2255 0 0 0 
310 4 1 27.6533 -15.5605 -10.9776 0 0 0 
311 5 3 25.4993 15.3905 -15.534 0 -1 0 
312 5 1 26.0121 14.7233 -15.9962 0 -1 0 
313 5 1 24.5803 15.1141 -15.5054 0 -1 0 
314 6 3 16.3658 -12.8677 -13.4268 0 0 0 
315 6 1 16.0312 -12.9012 -14.326 0 0 0 
316 6 1 17.1893 -13.359 -13.3812 0 0 0 
317 7 3 11.7684 -9.73344 -12.0084 0 0 0 
318 7 1 11.8778 -10.6681 -12.1986 0 0 0 
319 7 1 11.4486 -9.28923 -12.7971 0 0 0 
320 8 3 13.2443 -12.8211 -12.0684 0 0 0 
321 8 1 14.1272 -12.452 -12.145 0 0 0 
322 8 1 13.2627 -13.7373 -12.3546 0 0 0 
323 9 3 17.1865 -15.7672 -12.4726 0 0 0 
324 9 1 16.6418 -15.1696 -11.9551 0 0 0 
325 9 1 16.6272 15.6938 -12.8571 0 -1 0 
326 10 3 6.76432 -14.2473 -11.3594 0 0 0 
327 10 1 7.55778 -14.7787 -11.2608 0 0 0 
328 10 1 6.85174 -13.6973 -12.1414 0 0 0 
329 11 3 -1.24931 -13.4986 -14.6253 0 0 0 
330 11 1 -2.1881 -13.6639 -14.7394 0 0 0 
331 11 1 -0.754006 -14.2014 -15.0523 0 0 0 
332 12 3 -4.05407 -10.8731 8.38135 0 0 -1 
333 12 1 -4.43134 -10.8223 9.26269 0 0 -1 
334 12 1 -3.6034 -10.0482 8.18624 0 0 -1 
335 13 3 -4.99708 -11.7178 15.8765 0 0 -1 
336 13 1 -5.87489 -11.5137 -15.9325 0 0 0 
337 13 1 -5.00974 -11.687 14.9171 0 0 -1 
338 14 3 -6.56398 -8.00607 -12.9342 0 0 0 
339 14 1 -6.51334 -7.11789 -13.2951 0 0 0 
340 14 1 -5.67514 -8.35674 -12.8411 0 0 0 
341 15 3 -11.8788 -11.8265 -11.8737 0 0 0 
342 15 1 -11.2309 -11.411 -12.4475 0 0 0 
343 15 1 -11.8068 -12.7799 -11.9599 0 0 0 
344 16 3 -18.7465 -11.4793 -10.9563 0 0 0 
345 16 1 -18.0569 -10.9513 -10.5472 0 0 0 
346 16 1 -18.6201 -12.3998 -10.7147 0 0 0 
347 17 3 -17.7464 -15.1337 -14.9224 0 0 0 
348 17 1 -17.8414 -15.9769 -14.4733 0 0 0 
349 17 1 -18.4414 -14.5415 -14.6258 0 0 0 
350 18 3 -28.2117 -12.9331 15.636 0 0 -1 
351 18 1 -29.0594 -12.8771 -16.0568 0 0 0 
352 18 1 -27.8638 -12.0467 15.5134 0 0 -1 
353 19 3 -29.0462 -15.965 -15.1765 0 0 0 
354 19 1 -28.5147 -15.194 -14.9648 0 0 0 
355 19 1 -29.9731 -15.7152 -15.1763 0 0 0 
356 20 3 -29.8738 -9.80329 -11.7159 0 0 0 
357 20 1 -30.4979 -10.2508 -12.292 0 0 0 
358 20 1 -29.2567 -10.4482 -11.3625 0 0 0 
359 21 3 -32.8889 -12.0997 -15.3243 0 0 0 
360 21 1 -33.64 -12.6678 -15.5112 0 0 0 
361 21 1 -32.8243 -11.9691 -14.3754 0 0 0 
362 22 3 -35.9507 -8.1834 13.837 0 0 -1 
363 22 1 -36.3116 -9.06569 13.9506 0 0 -1 
364 22 1 -35.1907 -8.07981 14.4144 0 0 -1 
365 23 3 -39.5587 -7.48444 12.3273 0 0 -1 
366 23 1 -39.7093 -8.08566 11.5941 0 0 -1 
367 23 1 -38.81 -7.79805 12.8399 0 0 -1 
368 24 3 -40.4517 -11.6034 -15.2031 0 0 0 
369 24 1 -39.6201 -11.8121 -14.7712 0 0 0 
370 24 1 -41.1721 -11.9809 -14.6931 0 0 0 
371 25 3 -36.3532 15.7532 -11.6891 0 -1 0 
372 25 1 -36.4706 14.8311 -11.449 0 -1 0 
373 25 1 -36.4493 -15.8444 -10.9028 0 0 0 
374 26 3 -40.0513 -14.985 -10.45 0 0 0 
375 26 1 -39.8382 -15.9034 -10.6313 0 0 0 
376 26 1 -39.5168 -14.4227 -11.0155 0 0 0 
377 27 3 -43.8606 -5.01984 -14.4666 0 0 0 
378 27 1 -43.8397 -5.89553 -14.0737 0 0 0 
379 27 1 -43.0094 -4.8389 -14.8721 0 0 0 
380 28 3 -50.0403 -14.95 -9.68193 0 0 0 
381 28 1 -49.3744 -15.4448 -9.19874 0 0 0 
382 28 1 -50.696 -15.5614 -10.0255 0 0 0 
383 29 3 -49.0439 -14.8564 -14.8153 0 0 0 
384 29 1 -49.3224 -14.6451 -13.9212 0 0 0 
385 29 1 -49.7082 -15.4149 -15.2258 0 0 0 
386 30 3 -50.3679 14.8325 -12.3076 0 -1 0 
387 30 1 -50.1877 14.3415 -13.1126 0 -1 0 
388 30 1 -50.8499 15.6323 -12.5305 0 -1 0 
389 31 3 -56.2208 -7.15157 -14.0091 0 0 0 
390 31 1 -55.5595 -7.83153 -13.8606 0 0 0 
391 31 1 -57.0737 -7.56997 -14.1478 0 0 0 
392 32 3 -64.0325 -10.6179 12.5629 0 0 -1 
393 32 1 -63.3782 -11.3124 12.4569 0 0 -1 
394 32 1 -63.7789 -9.86473 12.0242 0 0 -1 
395 33 3 -73.099 -9.21646 -11.4114 0 0 0 
396 33 1 -73.6052 -10.0303 -11.3562 0 0 0 
397 33 1 -73.3472 -8.74754 -12.2115 0 0 0 
398 34 3 -73.8346 -8.53139 14.7143 0 0 -1 
399 34 1 -73.8108 -8.44283 13.7586 0 0 -1 
400 34 1 -73.6481 -9.44358 14.9484 0 0 -1 
401 35 3 -73.1597 -10.6741 -14.482 0 0 0 
402 35 1 -74.0435 -10.3082 -14.4014 0 0 0 
403 35 1 -73.064 -11.3999 -13.861 0 0 0 
404 36 3 -74.0629 -12.4601 -9.77624 0 0 0 
405 36 1 -73.5234 -12.6887 -9.01577 0 0 0 
406 36 1 -74.1212 -13.2213 -10.3583 0 0 0 
407 37 3 32.9166 15.0771 15.9626 0 -1 -1 
408 37 1 33.862 14.9132 15.9291 0 -1 -1 
409 37 1 32.6623 15.5981 15.1975 0 -1 -1 
410 38 3 36.1624 -10.37 -9.18363 0 0 0 
411 38 1 37.0763 -10.4122 -9.47489 0 0 0 
412 38 1 35.6669 -9.81315 -9.78862 0 0 0 
413 39 3 48.5619 -14.4424 -15.3209 0 0 0 
414 39 1 48.2569 -15.2964 -15.0057 0 0 0 
415 39 1 49.3675 -14.566 -15.8282 0 0 0 
416 40 3 42.5361 -13.9998 -11.4161 0 0 0 
417 40 1 43.3476 -14.0868 -11.9216 0 0 0 
418 40 1 41.8218 -14.4255 -11.8959 0 0 0 
419 41 3 51.9994 -11.513 13.6493 0 0 -1 
420 41 1 52.4495 -12.2416 13.2154 0 0 -1 
421 41 1 51.0792 -11.7507 13.7852 0 0 -1 
422 42 3 47.8325 -9.10106 14.5848 0 0 -1 
423 42 1 48.6793 -9.17814 14.139 0 0 -1 
424 42 1 47.1356 -9.3655 13.9797 0 0 -1 
425 43 3 59.6022 16.0495 -10.8068 0 -1 0 
426 43 1 60.2684 15.4369 -11.127 0 -1 0 
427 43 1 58.7317 15.6928 -10.9983 0 -1 0 
428 44 3 63.4674 16.0581 -11.5528 0 -1 0 
429 44 1 62.7286 15.6575 -12.0168 0 -1 0 
430 44 1 64.2847 15.6662 -11.869 0 -1 0 
431 45 3 61.9827 -11.4754 13.1166 0 0 -1 
432 45 1 61.6029 -10.8178 13.7039 0 0 -1 
433 45 1 61.2784 -11.8853 12.6091 0 0 -1 
434 46 3 67.3384 13.1251 -10.9233 0 -1 0 
435 46 1 67.7616 13.982 -10.8321 0 -1 0 
436 46 1 66.6235 13.0601 -10.2858 0 -1 0 
437 47 3 64.9728 14.5264 -8.84902 0 -1 0 
438 47 1 65.5316 15.1197 -8.34155 0 -1 0 
439 47 1 65.0091 14.7783 -9.77471 0 -1 0 
440 48 3 62.6039 13.8792 -6.07219 0 -1 0 
441 48 1 61.8823 13.3263 -5.76372 0 -1 0 
442 48 1 63.4375 13.4676 -5.83257 0 -1 0 
443 49 3 71.0984 -11.1877 -12.5976 0 0 0 
444 49 1 72.0062 -11.3373 -12.8716 0 0 0 
445 49 1 70.8878 -10.2576 -12.7081 0 0 0 
446 50 3 75.708 -9.00293 -9.29578 0 0 0 
447 50 1 74.8868 -9.48047 -9.43448 0 0 0 
448 50 1 75.5397 -8.06131 -9.37758 0 0 0 
449 51 3 31.4432 12.4358 -13.9776 0 -1 0 
450 51 1 31.4796 13.337 -14.3065 0 -1 0 
451 51 1 30.9609 12.4252 -13.1476 0 -1 0 
452 52 3 34.3623 -7.72727 12.779 0 0 -1 
453 52 1 34.2343 -6.93905 12.2461 0 0 -1 
454 52 1 34.1935 -7.51306 13.6995 0 0 -1 
455 53 3 26.3606 -13.2769 -15.5276 0 0 0 
456 53 1 26.7532 -12.8272 15.8605 0 0 -1 
457 53 1 25.792 -13.9815 -15.8469 0 0 0 
458 54 3 23.5951 -8.72407 -13.6914 0 0 0 
459 54 1 22.9748 -9.16585 -14.2761 0 0 0 
460 54 1 23.2103 -7.89557 -13.3961 0 0 0 
461 55 3 19.0042 -12.6436 15.3823 0 0 -1 
462 55 1 19.3691 -13.0312 -15.9587 0 0 0 
463 55 1 18.0474 -12.7187 15.4073 0 0 -1 
464 56 3 16.5741 -8.4193 14.5356 0 0 -1 
465 56 1 16.2465 -7.83422 13.8486 0 0 -1 
466 56 1 16.1271 -8.21426 15.3601 0 0 -1 
467 57 3 14.6402 -15.5516 -14.9744 0 0 0 
468 57 1 15.166 -15.9516 -15.6709 0 0 0 
469 57 1 14.044 -14.9075 -15.3636 0 0 0 
470 58 3 11.7052 -15.8879 -11.0464 0 0 0 
471 58 1 12.584 -15.9153 -10.6608 0 0 0 
472 58 1 11.4864 15.3818 -11.3876 0 -1 0 
473 59 3 2.28323 -12.9213 -13.864 0 0 0 
474 59 1 2.10661 -13.8595 -13.9646 0 0 0 
475 59 1 1.44878 -12.4474 -13.836 0 0 0 
476 60 3 -0.547415 -4.76207 -13.3519 0 0 0 
477 60 1 -0.775437 -5.69463 -13.3568 0 0 0 
478 60 1 0.355597 -4.66271 -13.0415 0 0 0 
479 61 3 -2.43305 -7.0505 -15.8762 0 0 0 
480 61 1 -2.77027 -7.38046 15.4276 0 0 -1 
481 61 1 -1.92437 -7.7436 -15.4489 0 0 0 
482 62 3 2.63105 -10.4811 -11.9066 0 0 0 
483 62 1 3.45894 -10.0447 -12.1208 0 0 0 
484 62 1 2.67648 -11.396 -12.194 0 0 0 
485 63 3 -6.63381 -10.6066 -11.1897 0 0 0 
486 63 1 -5.9647 -10.6758 -11.8747 0 0 0 
487 63 1 -7.13514 -9.79875 -11.323 0 0 0 
488 64 3 -16.5797 -15.1933 14.3687 0 0 -1 
489 64 1 -16.4668 -15.7447 15.1464 0 0 -1 
490 64 1 -15.7717 -14.6974 14.2172 0 0 -1 
491 65 3 -12.0994 -11.1741 -16.0329 0 0 0 
492 65 1 -11.2165 -11.5468 -15.9754 0 0 0 
493 65 1 -12.6217 -11.7004 15.4972 0 0 -1 
494 66 3 -14.5134 -9.82374 -13.9255 0 0 0 
495 66 1 -13.8562 -10.013 -14.5993 0 0 0 
496 66 1 -14.3348 -10.3659 -13.1536 0 0 0 
497 67 3 -19.9358 -13.7549 15.2312 0 0 -1 
498 67 1 -19.2827 -14.454 15.3111 0 0 -1 
499 67 1 -19.6197 -12.9771 15.6967 0 0 -1 
500 68 3 -27.5505 -12.5943 -11.7326 0 0 0 
501 68 1 -26.7911 -12.6703 -12.315 0 0 0 
502 68 1 -27.8945 -13.4721 -11.5515 0 0 0 
503 69 3 -25.4429 -11.9635 15.6556 0 0 -1 
504 69 1 -25.8217 -12.5941 -15.8675 0 0 0 
505 69 1 -25.0457 -12.4418 14.9241 0 0 -1 
506 70 3 -29.426 -6.87697 -15.4609 0 0 0 
507 70 1 -28.8314 -6.82303 -14.7091 0 0 0 
508 70 1 -29.8865 -6.03998 -15.5559 0 0 0 
509 71 3 -35.4361 -3.52517 -13.2334 0 0 0 
510 71 1 -35.5269 -2.95301 -12.4679 0 0 0 
511 71 1 -34.9314 -4.30291 -12.9842 0 0 0 
512 72 3 -39.041 -1.60139 12.4388 0 0 -1 
513 72 1 -38.681 -2.46247 12.2138 0 0 -1 
514 72 1 -39.6852 -1.34835 11.7735 0 0 -1 
515 73 3 -41.6863 -7.44922 -13.8719 0 0 0 
516 73 1 -41.4215 -8.09578 -14.5303 0 0 0 
517 73 1 -41.2556 -6.613 -14.0641 0 0 0 
518 74 3 -42.2278 -12.9185 -12.8134 0 0 0 
519 74 1 -42.4745 -13.4526 -13.572 0 0 0 
520 74 1 -42.9507 -12.92 -12.1817 0 0 0 
521 75 3 -44.7315 -4.28647 -11.1054 0 0 0 
522 75 1 -45.4149 -4.28173 -11.7797 0 0 0 
523 75 1 -43.9414 -4.69739 -11.464 0 0 0 
524 76 3 -47.3498 -11.1627 -14.3996 0 0 0 
525 76 1 -48.1429 -11.115 -13.8608 0 0 0 
526 76 1 -46.8688 -10.3355 -14.3217 0 0 0 
527 77 3 -56.0799 -7.75828 14.8266 0 0 -1 
528 77 1 -55.4253 -8.13133 14.2316 0 0 -1 
529 77 1 -55.9771 -8.15673 15.6939 0 0 -1 
530 78 3 -54.1809 -14.8365 -15.6447 0 0 0 
531 78 1 -55.0754 -14.7958 -15.9911 0 0 0 
532 78 1 -53.6381 -15.3572 15.8986 0 0 -1 
533 79 3 -56.6707 -15.9172 -11.5549 0 0 0 
534 79 1 -56.6786 -15.7668 -12.503 0 0 0 
535 79 1 -56.8352 -15.0851 -11.1051 0 0 0 
536 80 3 -56.9281 -15.9938 15.3191 0 0 -1 
537 80 1 -57.7548 -15.8113 15.7717 0 0 -1 
538 80 1 -56.6927 15.2257 15.4572 0 -1 -1 
539 81 3 -61.1755 -13.2003 14.1175 0 0 -1 
540 81 1 -61.1944 -12.7702 13.2594 0 0 -1 
541 81 1 -61.8799 -12.8418 14.6624 0 0 -1 
542 82 3 -66.1227 -14.5886 13.7766 0 0 -1 
543 82 1 -65.9163 -14.9275 12.9024 0 0 -1 
544 82 1 -65.3315 -14.1987 14.1556 0 0 -1 
545 83 3 -66.6555 -11.8527 -10.7419 0 0 0 
546 83 1 -66.5302 -12.2947 -11.5849 0 0 0 
547 83 1 -67.1363 -11.0344 -10.8865 0 0 0 
548 84 3 -70.0502 -9.22388 -14.0855 0 0 0 
549 84 1 -70.3595 -8.98721 -14.963 0 0 0 
550 84 1 -70.8081 -9.4118 -13.527 0 0 0 
551 85 3 -75.7754 -9.25295 -12.2569 0 0 0 
552 85 1 -75.8905 -8.87027 -11.384 0 0 0 
553 85 1 -76.622 -9.58181 -12.5681 0 0 0 
554 86 3 36.2097 -12.655 -13.7374 0 0 0 
555 86 1 35.5806 -13.3533 -13.5415 0 0 0 
556 86 1 36.5525 -12.783 -14.625 0 0 0 
557 87 3 44.3687 -13.3508 -15.412 0 0 0 
558 87 1 45.2324 -13.579 -15.7636 0 0 0 
559 87 1 44.4822 -12.7648 -14.6601 0 0 0 
560 88 3 43.9898 -10.5098 -8.86804 0 0 0 
561 88 1 43.8387 -9.56792 -8.76008 0 0 0 
562 88 1 43.5207 -10.8142 -9.64845 0 0 0 
563 89 3 51.6521 -8.60191 -13.7032 0 0 0 
564 89 1 52.0143 -9.47556 -13.8682 0 0 0 
565 89 1 51.9247 -8.01194 -14.4098 0 0 0 
566 90 3 50.5166 -12.604 -12.9087 0 0 0 
567 90 1 50.4605 -11.6701 -13.1238 0 0 0 
568 90 1 50.212 -13.1168 -13.6609 0 0 0 
569 91 3 53.2285 -7.64739 -11.1759 0 0 0 
570 91 1 53.8383 -7.13998 -10.6353 0 0 0 
571 91 1 53.2426 -7.30162 -12.0714 0 0 0 
572 92 3 55.0127 -10.6793 14.4529 0 0 -1 
573 92 1 55.741 -11.077 13.9702 0 0 -1 
574 92 1 54.2011 -11.1416 14.231 0 0 -1 
575 93 3 56.0758 -8.30745 -14.7344 0 0 0 
576 93 1 55.7826 -9.21347 -14.8563 0 0 0 
577 93 1 55.3165 -7.72281 -14.7921 0 0 0 
578 94 3 58.5146 -14.2412 15.8042 0 0 -1 
579 94 1 58.185 -14.7588 15.0658 0 0 -1 
580 94 1 57.921 -13.5026 15.9579 0 0 -1 
581 95 3 64.3464 -11.1659 -9.56311 0 0 0 
582 95 1 64.2694 -11.3835 -8.63122 0 0 0 
583 95 1 65.2748 -11.1628 -9.80766 0 0 0 
584 96 3 68.9492 -15.9571 -9.97327 0 0 0 
585 96 1 68.9686 -15.6036 -10.8656 0 0 0 
586 96 1 68.5956 -15.29 -9.38037 0 0 0 
587 97 3 68.8734 -6.48128 -9.17661 0 0 0 
588 97 1 68.6406 -6.13668 -8.31134 0 0 0 
589 97 1 69.6028 -7.09824 -9.0814 0 0 0 
590 98 3 67.7291 -11.7045 -14.4002 0 0 0 
591 98 1 67.0703 -11.9303 -15.061 0 0 0 
592 98 1 68.6037 -11.8136 -14.7809 0 0 0 
593 99 3 71.2567 -7.74199 -16.0595 0 0 0 
594 99 1 71.2474 -6.79057 -15.9315 0 0 0 
595 99 1 70.3571 -8.04749 15.9421 0 0 -1 
596 100 3 28.3609 -11.5539 -10.9273 0 0 0 
597 100 1 27.9315 -10.8378 -10.4536 0 0 0 
598 100 1 28.9888 -11.1832 -11.5519 0 0 0 
599 101 3 28.6334 -10.2861 -14.7957 0 0 0 
600 101 1 28.4224 -9.60823 -14.1494 0 0 0 
601 101 1 28.4389 -9.95153 -15.6743 0 0 0 
602 102 3 27.1742 -7.67895 -14.8577 0 0 0 
603 102 1 27.1236 -6.72055 -14.8337 0 0 0 
604 102 1 26.334 -8.0436 -14.5699 0 0 0 
605 103 3 28.108 -4.92031 -13.252 0 0 0 
606 103 1 28.7502 -5.14092 -12.5733 0 0 0 
607 103 1 27.2314 -4.90842 -12.8607 0 0 0 
608 104 3 20.4514 -9.36051 -12.7003 0 0 0 
609 104 1 21.1354 -9.62134 -12.0792 0 0 0 
610 104 1 20.1271 -8.48928 -12.4605 0 0 0 
611 105 3 17.9138 -7.02473 -11.5092 0 0 0 
612 105 1 17.3432 -7.79362 -11.4393 0 0 0 
613 105 1 18.4467 -6.95761 -10.7134 0 0 0 
614 106 3 7.11683 -5.62661 -14.1583 0 0 0 
615 106 1 6.92584 -4.98631 -14.8477 0 0 0 
616 106 1 8.06849 -5.70215 -14.0568 0 0 0 
617 107 3 13.4874 -13.9131 13.7321 0 0 -1 
618 107 1 12.9728 -14.6774 14.0018 0 0 -1 
619 107 1 12.9497 -13.1238 13.8304 0 0 -1 
620 108 3 1.61751 -8.72877 -14.8484 0 0 0 
621 108 1 2.07523 -9.52492 -15.1282 0 0 0 
622 108 1 1.11813 -8.3784 -15.5897 0 0 0 
623 109 3 2.94649 -6.13572 -13.1212 0 0 0 
624 109 1 2.66921 -6.82818 -13.7255 0 0 0 
625 109 1 3.33627 -5.41802 -13.6258 0 0 0 
626 110 3 3.19779 -6.12246 15.4812 0 0 -1 
627 110 1 3.45613 -6.91987 15.0132 0 0 -1 
628 110 1 3.54791 -5.35941 15.0156 0 0 -1 
629 111 3 -5.19666 -8.87147 14.5653 0 0 -1 
630 111 1 -5.20363 -8.93098 15.5234 0 0 -1 
631 111 1 -5.64315 -8.06438 14.299 0 0 -1 
632 112 3 -0.480528 -6.81902 -9.56469 0 0 0 
633 112 1 -0.170067 -6.16119 -10.1912 0 0 0 
634 112 1 -1.44056 -6.82284 -9.56549 0 0 0 
635 113 3 -13.1892 -12.7663 13.1066 0 0 -1 
636 113 1 -13.3828 -13.6029 13.5359 0 0 -1 
637 113 1 -12.278 -12.7736 12.8044 0 0 -1 
638 114 3 -12.0413 -7.4157 15.7699 0 0 -1 
639 114 1 -12.2596 -6.78741 15.0776 0 0 -1 
640 114 1 -12.4439 -7.12697 -15.5477 0 0 0 
641 115 3 -17.5512 -9.06825 -12.8631 0 0 0 
642 115 1 -16.9126 -9.33616 -12.1982 0 0 0 
643 115 1 -17.0822 -8.71155 -13.6211 0 0 0 
644 116 3 -25.6028 -3.90545 -13.4412 0 0 0 
645 116 1 -26.5486 -4.05697 -13.3776 0 0 0 
646 116 1 -25.2573 -3.71386 -12.5662 0 0 0 
647 117 3 -23.762 -1.58995 -10.9729 0 0 0 
648 117 1 -22.8833 -1.97404 -11.0183 0 0 0 
649 117 1 -23.752 -0.859419 -10.35 0 0 0 
650 118 3 -28.2639 -3.89852 13.5808 0 0 -1 
651 118 1 -27.683 -3.43015 12.9768 0 0 -1 
652 118 1 -27.7315 -4.34898 14.2405 0 0 -1 
653 119 3 -33.6954 -4.82661 13.8192 0 0 -1 
654 119 1 -34.05 -3.96339 14.0445 0 0 -1 
655 119 1 -32.8123 -4.90743 14.1869 0 0 -1 
656 120 3 -37.3001 -5.07635 14.0582 0 0 -1 
657 120 1 -37.3392 -5.91321 13.5894 0 0 -1 
658 120 1 -36.7806 -4.454 13.5439 0 0 -1 
659 121 3 -39.919 -3.86811 -12.7268 0 0 0 
660 121 1 -40.676 -3.2911 -12.8525 0 0 0 
661 121 1 -39.1145 -3.36301 -12.8656 0 0 0 
662 122 3 -38.8843 1.28318 15.1435 0 0 -1 
663 122 1 -38.5937 0.566338 15.7122 0 0 -1 
664 122 1 -39.6607 0.999626 14.6552 0 0 -1 
665 123 3 -39.2346 -6.35956 -9.86797 0 0 0 
666 123 1 -39.739 -5.56006 -10.0355 0 0 0 
667 123 1 -38.5958 -6.18611 -9.17263 0 0 0 
668 124 3 -41.1259 -4.61888 15.6361 0 0 -1 
669 124 1 -40.3896 -4.60834 15.02 0 0 -1 
670 124 1 -41.8436 -5.13139 15.2567 0 0 -1 
671 125 3 -53.047 -5.26567 13.8849 0 0 -1 
672 125 1 -53.9723 -5.51693 13.9345 0 0 -1 
673 125 1 -52.6991 -5.52196 13.0276 0 0 -1 
674 126 3 -54.8681 -7.86562 11.7149 0 0 -1 
675 126 1 -55.1279 -7.05151 11.2774 0 0 -1 
676 126 1 -53.9662 -8.08045 11.4655 0 0 -1 
677 127 3 -55.1139 -0.747414 -15.5095 0 0 0 
678 127 1 -54.5316 -0.15731 -15.9936 0 0 0 
679 127 1 -54.7108 -0.960597 -14.6647 0 0 0 
680 128 3 -60.4546 -12.3663 -14.6575 0 0 0 
681 128 1 -59.6716 -12.2953 -14.1065 0 0 0 
682 128 1 -60.3699 -13.1373 -15.2232 0 0 0 
683 129 3 -59.648 -9.59511 15.4496 0 0 -1 
684 129 1 -60.0629 -10.4469 15.2947 0 0 -1 
685 129 1 -59.9469 -9.25087 -15.8455 0 0 0 
686 130 3 -65.406 -5.58623 -10.9702 0 0 0 
687 130 1 -64.8789 -4.96786 -11.4815 0 0 0 
688 130 1 -66.1371 -5.8949 -11.5103 0 0 0 
689 131 3 -65.0129 -6.05713 -14.0659 0 0 0 
690 131 1 -65.8114 -6.01772 -14.5973 0 0 0 
691 131 1 -65.0659 -6.81403 -13.4777 0 0 0 
692 132 3 -67.7619 -5.89867 14.3759 0 0 -1 
693 132 1 -68.5947 -6.23752 14.0394 0 0 -1 
694 132 1 -67.9416 -5.1961 15.005 0 0 -1 
695 133 3 -66.876 -8.90067 15.2353 0 0 -1 
696 133 1 -66.0908 -9.21737 14.7828 0 0 -1 
697 133 1 -66.883 -7.94089 15.2145 0 0 -1 
698 134 3 -79.2754 -9.00076 -11.6596 0 0 0 
699 134 1 -79.8921 -9.715 -11.4829 0 0 0 
700 134 1 -79.7642 -8.17828 -11.739 0 0 0 
701 135 3 33.966 -11.0884 -15.7397 0 0 0 
702 135 1 34.1534 -12.0274 -15.8088 0 0 0 
703 135 1 34.7921 -10.6121 -15.6285 0 0 0 
704 136 3 40.4571 -8.5969 -14.2118 0 0 0 
705 136 1 40.561 -9.25767 -13.5232 0 0 0 
706 136 1 41.1801 -7.96791 -14.1531 0 0 0 
707 137 3 42.688 -11.1728 -13.678 0 0 0 
708 137 1 42.7512 -10.7497 -12.8185 0 0 0 
709 137 1 43.2277 -10.6869 -14.3059 0 0 0 
710 138 3 44.7866 -2.1448 -12.3443 0 0 0 
711 138 1 45.7259 -2.14969 -12.5428 0 0 0 
712 138 1 44.6557 -2.45343 -11.4447 0 0 0 
713 139 3 47.9828 -6.67784 -12.883 0 0 0 
714 139 1 48.2098 -6.62018 -11.952 0 0 0 
715 139 1 48.7076 -7.09304 -13.3563 0 0 0 
716 140 3 53.3842 -4.27075 13.9866 0 0 -1 