LAMMPS (24 Apr 2013)
WARNING: OMP_NUM_THREADS environment is not set. (../comm.cpp:100)
  using 1 OpenMP thread(s) per MPI task
# ----------------- Init Section -----------------
units           real
atom_style      full
boundary	p p p
kspace_style	pppm 1.0e-4

# ----------------- Atom Definition Section -----------------
read_restart	confout-3.data
  orthogonal box = (14.7639 2.80682 2.80682) to (248.236 47.1932 47.1932)
  1 by 1 by 1 MPI processor grid
  44200 atoms
  29498 bonds
  14700 angles
  2 = max # of 1-2 neighbors
  2 = max # of 1-3 neighbors
  4 = max # of 1-4 neighbors
  6 = max # of special neighbors

# ----------------- Settings Section -----------------------

group 		spc		type	1 2
44100 atoms in group spc
group		p1_end_atom	id 	44150
1 atoms in group p1_end_atom
group		p2_end_atom	id 	44200
1 atoms in group p2_end_atom

# ----------------- Run Section -----------------
# Write initial structure out
dump            icrd all custom 5 system-4.lammpstrj id mol type x y z ix iy iz
dump_modify     icrd sort id
run             1
WARNING: No fixes defined, atoms won't move (../verlet.cpp:54)
PPPM initialization ...
  G vector (1/distance) = 0.263217
  grid = 90 25 25
  stencil order = 5
  estimated absolute RMS force accuracy = 0.0402098
  estimated relative force accuracy = 0.000121091
  using double precision FFTs
  3d grid and FFT values/proc = 97280 56250
Memory usage per processor = 114.758 Mbytes
Step Temp E_pair E_mol TotEng Press 
  350003    200.77783   -145312.38    33.888725   -118826.25    24199.358 
  350004    200.77783   -145312.38    33.888725   -118826.25    24199.358 
Loop time of 0.478826 on 1 procs (1 MPI x 1 OpenMP) for 1 steps with 44200 atoms

Pair  time (%) = 0.438958 (91.6738)
Bond  time (%) = 0.00332403 (0.694204)
Kspce time (%) = 0.0353131 (7.37494)
Neigh time (%) = 0 (0)
Comm  time (%) = 0.000736952 (0.153908)
Outpt time (%) = 0.000245094 (0.0511865)
Other time (%) = 0.000248909 (0.0519832)

FFT time (% of Kspce) = 0.00811453 (22.9788)
FFT Gflps 3d (1d only) = 1.51639 2.98473

Nlocal:    44200 ave 44200 max 44200 min
Histogram: 1 0 0 0 0 0 0 0 0 0
Nghost:    69704 ave 69704 max 69704 min
Histogram: 1 0 0 0 0 0 0 0 0 0
Neighs:    1.46155e+07 ave 1.46155e+07 max 1.46155e+07 min
Histogram: 1 0 0 0 0 0 0 0 0 0

Total # of neighbors = 14615528
Ave neighs/atom = 330.668
Ave special neighs/atom = 2.00851
Neighbor list builds = 0
Dangerous builds = 0

# Reset the timestep
undump          icrd

# Timestep and Neighbour searching
timestep	2.0
neighbor        2.0 bin
neigh_modify	delay 4 every 1 check yes

# Fixes
fix 		pull p1_end_atom addforce  1.0 0.0 0.0
fix 		pull p2_end_atom addforce -1.0 0.0 0.0
WARNING: Replacing a fix, but new group != old group (../modify.cpp:657)
fix 		shake spc shake 0.0001 10 0 b 1 a 1
  0 = # of size 2 clusters
  0 = # of size 3 clusters
  0 = # of size 4 clusters
  14700 = # of frozen angles
fix   		npt all npt temp 300.0 300.0 100.0 iso 1.0 1.0 1000.0

# Initial velocity
#velocity		all create 300 432567 dist uniform

# Write out thermodynamic information
thermo_style    custom step temp press vol pe ke evdwl ecoul epair
thermo	        250

# Write out trajectory
dump            cxtc all xtc 250 traj-4.xtc

# Write out velocity
#dump 		1 all custom 1 vel_npt.txt vx vy vz

# Checkpoint files
restart         5000 state_cpt-*.data

# Final run command
run             100000
PPPM initialization ...
  G vector (1/distance) = 0.263217
  grid = 90 25 25
  stencil order = 5
  estimated absolute RMS force accuracy = 0.0402098
  estimated relative force accuracy = 0.000121091
  using double precision FFTs
  3d grid and FFT values/proc = 97280 56250
Memory usage per processor = 121.363 Mbytes
Step Temp Press Volume PotEng KinEng E_vdwl E_coul E_pair 
  350004    300.82983   -24.463588    459975.01   -145278.49    26452.243    24713.458    560607.42   -145312.38 
  350250    301.07875    12.566378    458918.62   -145237.44     26474.13    24767.763    560591.53   -145271.57 
  350500    298.86748   -14.278256    459386.85    -144948.4    26279.691     24632.67    561024.83   -144973.99 
  350750    302.65817    47.114986    460125.66   -144952.05     26613.01    24796.034    560846.28   -144986.53 
  351000    299.71353    95.422609    459867.94   -144951.59    26354.085    24836.616    560816.48   -144984.62 
  351250    300.62247     10.67335    459131.33   -145183.49    26434.009    24733.174    560688.99   -145212.13 
  351500    300.76862   -96.977724    460823.44   -145087.63     26446.86     24624.21    560893.25   -145121.79 
  351750    297.82838   -61.647107    460476.29   -144955.48    26188.322    24543.415    561110.06   -144989.37 
  352000    299.62204    19.097114    460967.89   -144767.96     26346.04    24729.376    561115.19   -144794.32 
  352250    299.85846    41.433723    460608.48   -145064.83    26366.829    24891.626    560646.94   -145094.35 
  352500    297.14056    5.1845023     460134.9   -144975.44    26127.841    24732.374    560912.17   -145002.64 
  352750    300.24825    115.60338    459179.96   -145286.41    26401.104    24994.809    560338.28   -145312.78 
  353000    299.22515    28.865066    458507.14   -145220.03    26311.141    24736.596    560665.31   -145250.45 
  353250    302.55432   -103.58017    462555.82   -144594.58    26603.879    24550.894    561446.85   -144626.88 
  353500    298.51946   -69.473695    460457.46   -144811.53    26249.089    24514.303     561267.4   -144838.84 
  353750    299.34242    52.461712    460260.46   -145147.25    26321.453    24885.157    560587.92   -145171.78 
  354000    301.06069    177.54146    459488.98   -144992.25    26472.542    24971.371    560634.12   -145017.63 
  354250    302.73854    5.0578958    460145.87   -144940.77    26620.077    24699.509    560953.16   -144968.97 
  354500    301.41203   -4.7903549    459775.66   -144848.37    26503.436    24539.119    561231.73   -144875.27 
  354750    298.92045   -80.586605    459675.38   -145153.12    26284.349    24555.609     560911.9   -145179.08 
  355000    298.74295   -204.96735    461051.83   -144875.34    26268.741    24238.799    561498.02   -144901.87 
  355250    300.98791   -3.2964473    460229.05   -144971.29    26466.143    24686.375    560942.24   -144996.84 
  355500    300.44853     23.35366     459354.7   -145153.46    26418.715    24787.717    560666.39   -145173.71 
  355750     299.1307   -78.344292    461583.05      -145190    26302.837    24750.634     560668.3   -145213.19 
  356000    300.44732    74.882691    461348.65   -144936.22    26418.608    24881.699    560782.16    -144958.5 
  356250    302.94824    118.98507    459040.05   -145510.96    26638.516    25106.826    559994.96   -145531.61 
  356500    299.31137     200.6913    457676.83   -144982.67    26318.723    24909.156    560732.91   -145005.41 
  356750    298.18825   -166.36817    459643.48   -144759.99    26219.966    24344.127    561501.62   -144783.97 
  357000    300.89141   -9.6148122    459456.48   -144979.83    26457.657    24649.785    560976.81   -145004.14 
  357250     299.4102   -5.1171421    460529.76    -144579.2    26327.413    24595.396    561424.74   -144603.54 
  357500    299.00164    210.76624    459937.95   -144589.88    26291.488     24991.36    561022.08   -144615.92 
  357750    301.47414   -35.820149    461178.12   -144367.77    26508.898    24462.978    561778.36   -144390.69 
  358000    300.27821     57.36741    460243.33   -145211.66    26403.738    24944.214    560461.11   -145238.14 
  358250    299.83539   -241.76424    461485.58   -145096.34    26364.801      24316.3    561196.48    -145123.9 
  358500    301.29501    106.11681    460908.33    -145119.7    26493.146    24997.888    560500.35   -145147.93 
  358750     301.5628   -50.596625    461177.03   -144863.83    26516.693    24519.764    561230.84    -144896.4 
  359000    299.99424    128.66035       459568   -145191.78    26378.768    25045.212    560387.19   -145219.61 
  359250      301.025   -266.97081    462422.72   -145243.57    26469.404    24414.676    560927.23   -145269.32 
  359500     297.1464    3.5488615    459690.12   -144980.49    26128.355    24725.154    560887.77   -145012.32 
  359750    298.72605   -78.283132     459357.3   -145076.32    26267.255    24531.297    560990.52    -145105.4 
  360000    299.20709   -26.326503    459282.06    -145319.4    26309.553    24706.341    560591.65   -145344.43 
  360250    300.91627    21.127371    460821.03   -144988.99    26459.843    24799.853    560828.87    -145021.3 
  360500    301.24851   -24.407788    461113.57   -144965.96    26489.057    24694.359     560950.9   -144994.78 
  360750    302.83907    40.073344    459758.18   -145003.41    26628.917    24781.012    560806.32    -145030.3 
  361000    303.71992    22.397969    460252.81   -144923.55    26706.371    24709.528    560955.02   -144953.17 
  361250    301.97074    58.567404    460070.22   -144813.44    26552.563    24728.609    561065.58   -144841.63 
  361500     299.7768    30.018214    459095.18   -145133.04    26359.648    24772.884    560704.05   -145169.74 
  361750    299.91624     62.22999    459245.89   -144975.68     26371.91    24816.064    560789.69   -145004.58 
  362000    300.79119   -40.259961    460416.83   -144882.22    26448.844    24542.119    561192.49   -144911.48 
  362250     299.9365    51.357777    460486.58   -144733.58    26373.691    24774.217    561085.21   -144765.49 
  362500    299.80944   -194.71448    460265.71   -145035.91    26362.519     24359.46    561213.72   -145059.16 
  362750    300.87192   -14.159779    458857.12   -145195.88    26455.943    24656.989    560734.66    -145224.5 
  363000    300.31117    83.857863    458376.85   -145036.53    26406.636    24755.468    560823.79   -145066.04 
  363250    303.38261    30.613552    460180.66   -144831.67    26676.711    24659.392    561112.96    -144859.4 
  363500    299.92854    30.501195     460461.4   -145112.45    26372.991    24878.763    560629.04   -145145.24 
  363750     301.9406   -77.939425    460004.21   -144811.45    26549.914    24446.195    561346.96   -144843.04 
  364000    301.05594    61.788767    460746.75   -144816.81    26472.125    24844.765    560929.97   -144845.84 
  364250    299.18508    99.736754    459997.71   -145013.88    26307.618    24958.098    560636.67   -145040.23 
  364500    299.19947   -5.3276976    460706.19   -144611.29    26308.883    24638.088    561364.03   -144639.38 
  364750    301.23199   -78.914101    459934.79   -144824.98    26487.605    24536.591    561244.03   -144855.89 
  365000    298.79936    93.538112    458741.96    -144985.9    26273.701    24795.772    560825.03   -145014.04 
  365250     299.7301   -34.882364    460034.18   -144867.31    26355.542    24584.561    561167.24   -144892.25 
  365500    301.13725    180.61369    458140.95    -145167.1    26479.274    25052.255    560396.13   -145192.99 
  365750    301.80944    20.420353    457306.15   -145569.24     26538.38    24827.017    560214.32   -145602.98 
  366000    301.92736   -21.180698    459620.61   -145362.36    26548.749    24805.206    560438.69   -145387.23 
  366250    300.13276   -42.768476    460488.47   -144995.75    26390.948    24641.592    560979.83   -145032.74 
  366500    300.01733   -33.098753    461091.93   -145112.18    26380.799    24752.993    560745.91   -145132.78 
  366750    298.25886    164.07784    459334.61   -145072.01    26226.174    25046.018    560487.38   -145101.39 
  367000    301.11496   -75.909232    460775.01   -144704.58    26477.314    24431.261    561467.99   -144730.99 
  367250    299.74473   -126.21884    460998.79   -145011.78    26356.828    24518.586     561077.2   -145040.78 
  367500    298.08777   -71.058487    461604.47   -144926.65    26211.131    24644.957    561022.46   -144955.72 
  367750    299.32684     105.6537     460607.9   -144678.35    26320.083     24861.64    561057.01   -144710.99 
  368000     300.9908    44.273769    459866.23   -144786.01    26466.397    24611.896    561216.28   -144804.68 
  368250    300.30721   -5.6050315    460411.87   -144806.83    26406.288    24626.259    561170.77   -144831.47 
  368500     301.3576    138.39301    459679.74   -145476.93     26498.65    25149.997    559992.69   -145501.44 
  368750    302.44803    174.81226    459273.23   -145159.81    26594.532    25082.247    560373.94   -145183.65 
  369000    297.97613   -55.904315    460416.19   -145322.21    26201.314    24778.485    560511.72   -145346.29 
  369250    298.11416     179.4476    459042.24   -144801.71    26213.451    24888.121    560899.51   -144832.36 
  369500      298.179   -68.768876     458634.5   -145339.34    26219.153     24612.28    560660.12   -145361.63 
  369750     302.4649    198.99589    458936.38   -144974.01    26596.016     25006.78     560633.9    -144999.4 
  370000    300.90947     75.78809    460403.18    -144783.6    26459.245    24786.106     561049.1   -144811.19 
  370250    302.14908    46.137184    459508.09   -144695.61    26568.245    24609.138     561318.4   -144720.61 
  370500    297.72924   -80.654351    460298.02   -145027.64    26179.605    24623.742    560957.29    -145051.2 
  370750    299.52505    101.08854    458962.25   -145140.51    26337.512    24943.268    560531.99   -145166.46 
  371000     301.5766   -10.018487    458270.96   -145169.28    26517.907    24613.591     560835.3   -145191.85 
  371250    298.52539   -94.109871    461616.02    -145136.8    26249.611     24702.87    560785.11   -145157.24 
  371500    296.31967    47.574701    459689.91   -144875.43     26055.66    24708.435    561031.84   -144898.27 
  371750    300.05305    41.663575    460244.93   -145187.53    26383.939     24842.13    560602.67   -145207.17 
  372000    296.24014   -6.7586799    460585.34   -144850.13    26048.667    24735.568    561046.19    -144871.9 
  372250    301.51681    127.70318    459272.14    -145459.4    26512.649    25094.738    560059.57   -145483.77 
  372500    301.42261     150.7475     461304.4   -144980.31    26504.366    25109.868    560492.15   -145008.62 
  372750    300.32805   -206.97078    461328.45   -145333.15     26408.12    24435.284    560869.57   -145357.16 
  373000    300.85709    144.86227    460175.68   -145022.08     26454.64    25012.113    560569.37   -145047.24 
  373250    299.73262   -28.853154       461205   -144843.94    26355.763    24650.779     561115.7   -144869.32 
  373500    299.26167   -205.99745    461227.08   -144620.64    26314.353    24189.951    561804.73   -144645.56 
  373750    298.95456   -34.278597    459519.79   -145002.61    26287.349    24614.222    560991.91    -145033.5 
  374000    300.34826    10.383525    459340.03   -144895.74    26409.897     24575.95    561134.99   -144921.01 
  374250    300.28159   -151.46159    458698.61   -145355.97    26404.035    24368.944    560892.62   -145383.73 
  374500    300.24913   -105.02611    457032.71   -145742.57    26401.181     24571.16    560302.23   -145772.35 
  374750    299.71262    111.50159    458468.71   -145037.78    26354.005    24893.978    560690.34   -145067.15 
  375000    300.01476   -103.80525    459803.23   -145463.59    26380.573    24775.773    560353.14   -145494.87 
  375250    301.15577   -41.672589    460163.19   -145014.25    26480.903    24583.441    561011.13   -145044.07 
  375500    301.09491   -24.522491    460515.41    -145322.6    26475.551    24800.467    560496.62   -145346.99 
  375750    299.16243   -155.09743    461598.74   -145160.81    26305.626    24514.419       560948    -145182.4 
  376000    298.54103    3.9399719     460234.7   -145417.45    26250.986    24952.439    560249.75    -145440.5 
  376250    302.07359   -257.93095    462498.23   -145338.37    26561.607    24554.812    560705.73   -145360.99 
  376500    299.48541   -3.1379186    460350.84   -145063.13    26334.026    24686.578    560873.56   -145085.39 
  376750    299.27182   -52.859363    460309.33   -144762.81    26315.245     24526.92    561335.02   -144787.88 
  377000    298.58432    42.691414    459882.94   -145260.83    26254.793    24968.569     560378.3   -145290.12 
  377250    302.40762    -21.97621    459505.11   -145113.67    26590.979    24648.233    560844.42   -145148.78 
  377500      298.169   -19.958976    461552.07   -145245.81    26218.273    24929.178    560434.27   -145274.73 
  377750    299.63709   -30.885795    459747.44   -145268.18    26347.364    24730.196    560616.96   -145299.86 
  378000    299.08648   -8.4733594    460400.29   -144722.83    26298.948    24567.599     561300.5   -144759.42 
  378250    300.42464    109.31499    458207.81   -145103.47    26416.614    24778.583    560709.99    -145133.5 
  378500    299.67129    -42.65928    459391.28   -145076.64    26350.371    24633.563    560879.32    -145106.9 
  378750     300.6165   -340.05409    462869.98   -144756.37    26433.484    24140.712    561705.71   -144788.15 
  379000    299.92418    148.04786    458897.05   -145289.91    26372.608    25046.788    560268.79    -145321.2 
  379250    299.71405   -50.913275    459763.56   -145145.85    26354.131    24652.763    560817.28   -145176.29 
  379500    298.27247    25.272271    459992.31   -145055.05    26227.371    24758.239    560788.58    -145085.2 
  379750    296.78764    132.61219    459029.79   -144928.21    26096.809    24890.319    560788.34    -144955.6 
  380000    298.52892    68.037614    460453.16    -144994.8    26249.921    24898.455    560701.79   -145023.66 
  380250    298.83372   -64.656342    461745.49   -145066.88    26276.723    24745.389    560809.49   -145099.25 
  380500    300.47485    78.185476    459500.13   -145504.53    26421.029    25050.693    560058.92   -145536.47 
  380750    299.92753    178.98446    458814.22   -145137.89    26372.902    25006.698    560461.62    -145170.9 
  381000    300.45269    80.789824    459562.97   -145084.85     26419.08    24931.295    560596.37   -145116.66 
  381250     300.4868   -59.821079    460515.41   -145352.96    26422.079    24763.919    560479.46   -145387.64 
  381500    304.38506   -184.29436    460405.47    -145004.7    26764.857    24334.816    561248.06   -145035.58 
  381750    298.52418    151.78951    460719.26   -145058.15    26249.505    25067.189    560475.78   -145091.86 
  382000    301.41839   -185.90263    460781.22   -144885.52    26503.995    24367.599    561345.95   -144924.76 
  382250    298.60456    59.988475    457920.55   -145044.84    26256.572    24714.141    560861.73   -145076.97 
  382500    297.81743   -92.102484    460617.59   -144494.66    26187.359    24386.161    561704.81   -144526.98 
  382750    299.91475    106.43205    460461.66   -145068.44    26371.778    24972.999    560548.43   -145099.48 
  383000     299.9654   -190.03434    461151.07   -145239.51    26376.232    24490.624    560875.89   -145277.54 
  383250    300.17227   -128.26419    460710.64   -144867.66    26394.423    24432.784    561296.35   -144903.02 
  383500    297.80869    187.48966    458543.59   -145470.62    26186.591    25248.056    559874.08   -145505.24 
  383750    301.07265    129.50037    458725.89   -144971.59    26473.594    24873.375    560771.12   -145004.05 
  384000    297.60009    -45.07837    458771.01   -145269.33    26168.248    24729.921    560597.48   -145299.54 
  384250    298.61583   -133.62775    459394.46   -144892.96    26257.563    24412.514       561301   -144928.38 
  384500    299.62638    120.51179    459475.26   -145024.19    26346.422    24956.731    560618.43   -145053.51 
  384750    299.36479    -29.51666    459836.55   -145052.19    26323.421     24662.18    560879.12   -145087.84 
  385000    299.58858    98.830109    460202.57   -145145.18    26343.098    25028.849    560434.03      -145176 
  385250    300.39962     3.205466    460602.24   -144846.58    26414.414    24690.835    561067.67   -144881.54 
  385500    300.84577    13.695743       459628   -144786.22    26453.644    24601.346    561203.87   -144825.19 
  385750    298.27715   -245.41869    459841.72   -145286.66    26227.783    24345.498    560960.18   -145324.42 
  386000    296.82363    138.39489    458066.24   -145205.64    26099.974    25054.331    560347.32   -145244.76 
  386250    294.94641    45.444487    460880.74   -145048.38    25934.908    24903.928    560650.28      -145084 
  386500     302.8187    90.353362    459459.42   -144975.98    26627.126    24800.632    560835.88   -145011.86 
  386750    301.24811    33.200261     460601.7   -144934.75    26489.022    24779.395    560884.42   -144965.89 
  387000    299.47347   -101.76156    461338.41   -144802.92    26332.976    24519.398    561275.14   -144837.98 
  387250    301.07104   -80.152702    460812.16   -145082.11    26473.452    24618.756    560903.28   -145108.34 
  387500     302.3172   -111.93865    460434.93   -145397.58    26583.028    24600.584    560605.66   -145424.13 
  387750    298.62645   -27.641762    459152.85   -145330.99    26258.497    24716.019    560563.96   -145366.83 
  388000    298.56795    90.623616     460593.7   -145087.98    26253.353    24988.183    560544.68   -145116.65 
  388250    299.58875   -29.459218    460408.01   -145137.51    26343.113    24694.584    560779.89   -145171.11 
  388500    300.48116    87.643046    461030.71   -144934.05    26421.584    24929.182    560736.11    -144960.7 
  388750    302.86449    127.59147     459182.9   -145119.85    26631.152    24908.428     560585.2   -145154.34 
  389000    297.66669   -157.92239    460454.75   -145318.98    26174.105    24560.752    560713.39   -145347.48 
  389250    299.31475    -146.3783    461103.65   -145246.85     26319.02    24496.716    560878.62   -145275.06 
  389500    300.86022    67.035883    459672.23   -145085.47    26454.914     24841.53    560667.02   -145120.11 
  389750    299.89152   -114.01508    460490.07   -145137.92    26369.736    24598.317    560872.02    -145168.3 
  390000    298.82711   -41.787367    461029.24   -144976.19    26276.142     24699.91    560929.35    -145008.4 
  390250    300.68492    164.05615    460251.38   -145079.64      26439.5    25060.457    560465.69   -145113.65 
  390500    302.24113    193.73294    458778.93   -145340.01    26576.339    25138.578     560133.1   -145369.22 
  390750     301.5041   -150.29701    460271.16   -145015.38    26511.532    24412.161    561174.52   -145042.25 
  391000    298.30973   -30.891012    459451.24   -145246.08    26230.648    24696.816       560677   -145281.41 
  391250    300.09159   -12.891228    461124.51   -145057.21    26387.329      24775.4    560781.19   -145089.31 
  391500    300.86294    86.725529    459146.53   -145100.59    26455.154    24925.043    560582.45   -145127.28 
  391750    299.11067   -82.485183    459728.02   -144909.67    26301.075    24504.896    561194.58   -144934.53 
  392000    300.92228    57.999411    459296.96   -144860.66    26460.372     24738.98    560992.09   -144893.07 
  392250    299.53818    249.53782    458257.48   -144855.24    26338.667    25075.471    560646.48   -144882.51 
  392500    301.46323   -61.141064     460357.2    -144876.1    26507.938    24554.873    561169.94   -144909.18 
  392750     301.0733    126.71156    458182.47   -144799.36    26473.651    24706.555    561099.16   -144825.62 
  393000    301.42777   -138.48406    460051.51   -145437.92     26504.82    24557.722    560613.49   -145466.27 
  393250    296.84458   -45.576027    461011.11   -145053.52    26101.816    24710.147    560842.55   -145082.95 
  393500    299.03907     56.16037       459509   -145161.35    26294.779    24972.499    560465.31      -145189 
  393750    297.10202   -141.03292    461274.67   -144872.23    26124.452    24465.223    561255.46   -144898.16 
  394000    299.06967    207.82679    460613.15   -144829.37     26297.47     25095.72    560676.96   -144859.22 
  394250    302.74545    59.105777    460866.94   -144732.02    26620.685    24717.008    561156.83   -144755.23 
  394500    296.73904    17.756237    459816.91   -145081.24    26092.536    24717.786    560800.92   -145109.58 
  394750     299.6989    157.75503    458590.63   -145289.11    26352.799    25041.446    560288.57   -145318.76 
  395000    299.32681   -155.80683    461328.83   -144816.71    26320.081    24411.796    561400.33   -144841.24 
  395250    300.05252   -109.96193     459402.7   -144935.27    26383.893    24476.651    561208.58   -144956.53 
  395500     300.6218    58.408819    458646.05   -145080.88     26433.95    24801.946    560718.68   -145109.54 
  395750    298.80106     38.76015    458924.74   -145299.63    26273.851    24898.727    560413.69   -145324.49 
  396000     300.3136   -28.035455       459279   -144675.21     26406.85    24579.168    561341.61    -144705.3 
  396250    299.50522   -73.648847     461889.2   -144944.52    26335.768    24677.924    560984.77   -144970.59 
  396500     301.2461     54.37546    459545.97   -145084.69    26488.845    24802.276    560730.06   -145107.62 
  396750    298.29897    63.782195    460415.55   -145232.41    26229.701    25023.951    560355.55   -145263.86 
  397000      299.153    39.524159    461101.78   -145005.22    26304.797    24819.724     560778.5    -145038.1 
  397250    297.94738     66.28985    459246.31   -144965.36    26198.786    24787.322    560837.01   -144993.58 
  397500    298.63513   -95.873697    458310.27   -145187.12     26259.26    24474.414    560947.22   -145212.26 
  397750    301.22129   -148.15016    459689.97   -145396.59    26486.664    24577.412    560641.87   -145432.43 
  398000    301.41172    -27.38279    458720.89   -144668.37    26503.408    24411.344    561518.61   -144700.74 
  398250    299.90091   -41.178205     458333.3   -145050.67    26370.561    24452.337    561101.55   -145084.19 
  398500    301.55285   -4.6935632    457201.95   -145017.83    26515.818    24507.927    561069.17    -145053.5 
  398750    299.87908    6.2623676    458166.03   -145033.51    26368.642    24688.766    560879.23   -145066.91 
  399000    299.06101    39.772685    459754.06   -145165.06    26296.708     24854.95     560587.2   -145190.18 
  399250    299.32807    61.799202       459704   -145186.78    26320.191    24977.652    560426.87   -145214.39 
  399500    300.85199    105.94906    457147.03   -145573.34    26454.191    24978.353    560050.06   -145608.66 
  399750    300.73855   -74.375318    460365.69   -145151.42    26444.216    24715.754    560737.91   -145179.33 
  400000    303.12565    4.1693068    460210.99   -145316.64    26654.116    24871.057     560403.3    -145346.4 
  400250    299.79149    18.082848    460218.93   -145121.27     26360.94    24825.891    560658.74   -145151.86 
  400500    300.70636   -111.71596    461343.36   -144961.72    26441.385    24556.147    561087.42   -144994.35 
  400750    305.25956   -63.214002    459875.29   -145195.02    26841.752    24630.771    560779.48   -145224.52 
  401000    298.72396   -77.267953    459289.08   -145239.56    26267.072    24574.762    560799.25   -145263.95 
  401250    299.96219    152.04956    459072.13   -144895.82     26375.95    24886.823    560821.85   -144926.56 
  401500    300.05516   -73.553067    460966.91   -145130.54    26384.125    24691.796    560798.39   -145155.65 
  401750    299.50779    92.967902    458476.01   -145240.44    26335.994    24893.975    560479.32   -145263.64 
  402000    300.79681   -87.397016    460439.38   -144727.45    26449.339    24433.287    561450.46   -144754.11 
  402250    300.93124    24.032006    461191.16   -144899.46    26461.159    24760.266    560973.12   -144928.32 
  402500    300.40764    120.18622    457691.37   -145095.14    26415.119    24843.637    560662.48   -145123.86 
  402750    300.91354    90.287315    458422.65   -144807.35    26459.603    24690.253    561118.88   -144831.83 
  403000     301.2448    41.932474    459551.99   -144776.67    26488.731    24646.501     561167.2   -144810.46 
  403250    298.93984   -173.64607    461311.35   -144862.81    26286.054    24444.275    561294.79   -144891.11 
  403500    301.85056   -51.961031    459478.36   -145262.24    26541.996    24638.201    560711.25   -145288.19 
  403750    301.21613    84.719288    458473.01   -144981.64     26486.21    24729.099    560900.93   -145010.69 
  404000    299.88322   -195.64053    460539.52   -145234.47    26369.006    24355.134    561008.73   -145258.65 
  404250    297.88714   -15.384217    461610.26   -145043.19    26193.489    24815.542    560755.61   -145070.88 
  404500    300.72652   -190.37029    459881.24   -144742.65    26443.158    24174.438     561680.2   -144772.89 
  404750    300.06664    29.534761    458877.19   -145065.88    26385.134    24661.851    560873.11   -145093.92 
  405000    301.75096      35.7846    461531.65   -145063.27    26533.238    24857.318    560681.26   -145094.99 
  405250    302.55804   -123.43598    461034.29   -145168.22    26604.205    24547.516    560894.81   -145195.98 
  405500    300.88328    20.879509    459608.61   -145140.36    26456.942    24707.656    560752.53   -145170.93 
  405750    300.23034    37.082628    458758.28   -145287.17    26399.529    24784.773    560540.77   -145320.47 
  406000    300.71515   -81.587137     460514.8   -145266.78    26442.158    24695.166    560654.61   -145298.29 
  406250    302.09312    90.072866    459852.95   -145397.72    26563.324    25107.473    560096.91   -145431.46 
  406500    301.76235   -95.783828    461067.62   -145196.48     26534.24    24728.638    560673.48   -145235.46 
  406750    299.81687   -152.81327    460693.53   -145197.01    26363.172    24557.749    560854.92   -145226.31 
  407000    298.67664    8.1297225    459489.68   -145287.89    26262.911    24813.281    560500.43    -145320.9 
  407250    299.14635   -130.87895     460524.8   -144860.11    26304.212    24437.223    561299.86   -144895.39 
  407500    303.04883    40.693442    460805.02   -145121.89    26647.361    24841.253    560654.55   -145149.11 
  407750    303.16292   -30.609111    461366.84    -145241.8    26657.394    24811.988    560565.81    -145276.6 
  408000      300.573    28.567143    459409.47   -145205.27    26429.659    24821.373    560573.73   -145240.34 
  408250    299.15682    60.684784    459578.33   -145287.47    26305.133    24960.304    560349.65   -145323.76 
  408500    296.84807   -112.23609    460227.84   -145100.44    26102.122    24535.636    560978.98   -145134.95 
  408750    301.71141    73.605165    457789.19   -145501.23    26529.761    24922.478    560178.15   -145528.35 
  409000    300.86422   -97.171864    459448.74   -145151.58    26455.267    24536.951    560909.04   -145188.01 
  409250    299.53469    78.568351     458981.4   -145270.95     26338.36    24956.302    560385.08   -145298.52 
  409500    302.31253    19.058535    460339.58   -144782.18    26582.618      24617.9    561175.65   -144819.54 
  409750    298.12263    36.184507    459275.51    -145243.7    26214.196    24901.026    560477.16   -145269.52 
  410000    301.45236    36.494843    458774.54   -145070.74    26506.982    24724.432    560810.71   -145100.17 
  410250    299.79019   -33.924753    459196.53   -145211.36    26360.826      24634.2    560761.87   -145243.13 
  410500    300.32497   -126.64603    460641.72   -144821.87     26407.85    24450.219    561343.95   -144849.76 
  410750    300.68358     9.297981    459725.17   -145020.94    26439.382    24725.456    560857.03   -145046.83 
  411000    299.68753    175.17378    458648.03   -145154.37    26351.799    24983.249    560455.08   -145183.04 
  411250    301.75455   -204.77551     462447.7   -144779.06    26533.554    24404.348    561402.72    -144811.5 
  411500    300.71788   -77.976462    461725.66   -145093.13    26442.398    24709.992    560806.62   -145119.87 
  411750    300.91617   -47.974014    460157.78   -145108.63    26459.834    24672.378    560811.69   -145136.25 
  412000    299.39268   -35.421274    459258.69   -145312.28    26325.872    24724.883    560567.08   -145344.22 
  412250    299.09135    22.004825    459995.88   -145068.65    26299.377    24817.027     560747.9   -145093.24 
  412500    303.07142    131.22241     460853.6   -145138.74    26649.348    25076.622    560388.43   -145172.69 
  412750    304.01002    55.057349    460648.47   -145136.87    26731.879     24959.02    560494.28   -145171.34 
  413000    300.49638    -97.35739    459314.65   -145176.86    26422.922    24505.577    560921.25   -145207.88 
  413250    299.91811    17.219967    458159.24   -145438.56    26372.074    24743.313    560426.93   -145469.18 
  413500    303.19762    51.822031    460478.38    -144867.1    26660.444    24790.441    560956.73   -144891.58 
  413750    301.73973    174.36501    459394.62   -144986.74    26532.251    24966.409     560656.2   -145017.74 
  414000    301.23333    174.63486    459242.91   -144919.92    26487.723    24972.805    560722.67   -144941.91 
  414250      303.177    2.1083552    459433.84   -145039.16    26658.631    24619.522    560951.11   -145064.95 
  414500    298.15069    -84.17863    459158.05   -144772.99    26216.663    24342.173     561501.6   -144799.46 
  414750    299.97978   -77.166479    459261.16      -145161    26377.497     24558.49    560885.72   -145185.92 
  415000     298.5779     22.78554    459001.78   -144919.23    26254.228    24630.038    561056.49    -144941.2 
  415250    300.46508   -63.486932    458748.94   -145242.13    26420.169    24593.983    560772.91   -145266.42 
  415500    300.26497   -189.49562    458993.51   -144926.86    26402.574    24252.639    561440.84   -144951.67 
  415750    302.27051    127.67012    458825.85   -144906.15    26578.923    24774.881    560933.98   -144930.66 
  416000    298.33823   -11.731903    460733.76    -145295.8    26233.154    24848.586    560475.58   -145322.77 
  416250    300.47124   -207.39224    461591.63   -144946.19    26420.711    24313.229    561364.52   -144968.66 
  416500    299.39015   -48.874146    460195.46   -145178.12     26325.65     24634.28    560785.12   -145210.26 
  416750    302.28611   -67.165442    461470.48   -144882.87    26580.295    24579.282    561141.77   -144910.44 
  417000    301.11405    60.614669    458921.69   -145339.17    26477.234    24898.868    560381.68   -145366.52 
  417250     302.1416    26.452371    458635.32   -145212.29    26567.587    24704.208    560676.56   -145240.93 
  417500    299.53429   -98.532977    459736.77   -145382.62    26338.324    24605.436    560631.59   -145405.31 
  417750     301.9477    35.019775    462086.34   -144973.53    26550.537    24959.653    560670.58   -145000.86 
  418000    297.28978   -69.127688    463165.92   -145307.53    26140.962    24913.021     560378.2   -145336.77 
  418250    298.42877    268.95764     461522.6   -145083.97    26241.115    25476.118    560036.36   -145113.46 
  418500    298.75977    44.465569    459743.44      -145078     26270.22    24804.402    560728.74   -145107.69 
  418750    301.39033    96.717383    461137.82   -144975.27    26501.527    24925.012    560702.62   -145002.62 
  419000    299.64406    108.22953    461856.83   -144855.18    26347.977    24913.612    560836.44   -144883.64 
  419250    301.51682   -66.956649    459701.99   -145122.23     26512.65    24647.547    560829.31   -145152.63 
  419500    299.76064   -62.694777     459617.5   -145286.34    26358.228    24677.211    560658.35   -145315.69 
  419750    299.66177   -161.70161    459711.11   -145248.96    26349.534    24557.302    560799.85   -145279.22 
  420000    298.82286    -80.31906    459655.48   -145273.79    26275.768    24696.352    560643.91   -145304.62 
  420250     300.9845    119.88314    457663.03   -145607.28    26465.843    25151.203    559825.14   -145643.64 
  420500    298.13377   -227.19149    460226.45    -145201.3    26215.176    24383.052    561002.02   -145233.97 
  420750    300.30083    142.13709    458205.22   -145299.52    26405.727     25005.27    560297.15   -145332.97 
  421000    300.73021    -50.95838    460273.93   -145021.45    26443.483    24685.951    560907.49   -145051.75 
  421250    300.18582   -34.469414    460319.32   -145468.83    26395.614    24848.551    560291.47   -145498.46 
  421500    298.09948   -135.54766    460619.76   -144960.69     26212.16    24523.953    561101.11   -144988.66 
  421750    297.91772     51.34113    460042.29   -145046.49    26196.178    24811.995    560734.91    -145083.6 
  422000    300.12562   -36.803396    459941.87    -145235.3     26390.32    24833.357    560524.65   -145267.12 
  422250    301.24071   -113.19813    460237.55   -145438.28    26488.372    24650.906    560530.76   -145467.15 
  422500    299.88209   -25.868047    459110.93   -145062.58    26368.906    24668.673    560889.98   -145089.26 
  422750    300.55395     166.8633    459209.86   -144895.66    26427.984    24970.606    560722.48   -144930.27 
  423000    300.85436    99.311517    459852.97   -145101.64    26454.399    24946.129    560552.22   -145134.19 
  423250    301.56128   -58.009829    459741.48   -145399.22    26516.559    24687.195    560536.62   -145429.55 
  423500    300.80982    -5.047541    458803.69    -145427.9    26450.483    24878.046    560290.36   -145457.95 
  423750    298.54659   -12.941882     458867.5   -145168.71    26251.475    24677.658    560758.81   -145198.68 
  424000    300.71916   -120.05319    458808.75   -145532.85    26442.511    24587.319     560486.2   -145563.69 
  424250    299.86867   -20.508084    458674.79   -145452.39    26367.727    24810.973    560323.33   -145485.39 
  424500    300.23627    49.908137    459433.39    -145304.7     26400.05    24954.106    560339.56   -145337.98 
  424750    299.63234    47.972131    459887.15   -145275.82    26346.946    24900.659    560440.47   -145312.62 
  425000    299.44929    -122.5321    459610.78   -145377.43     26330.85    24699.817    560534.35   -145409.47 
  425250     299.8613    -97.45523    459248.28   -145402.01    26367.078    24600.204    560619.59   -145435.38 
  425500    299.88254   -13.396289    459300.25   -145338.94    26368.946    24770.541    560496.26   -145379.74 
  425750    300.91021    19.675913    459674.88   -145239.42     26459.31    24810.774    560564.38   -145274.63 
  426000    302.48499   -6.2656476    459977.43   -145124.99    26597.782    24749.803    560719.13   -145161.36 
  426250    300.02494    57.263546    460164.67   -145296.41    26381.468    25004.019    560301.08   -145326.28 
  426500    300.13196   -70.955938    461543.64   -145354.48    26390.878    24850.335    560411.36    -145391.3 
  426750    299.14698   -21.684312    461073.88   -145124.17    26304.268    24720.485    560745.53   -145169.55 
  427000     298.9747    -2.784155    458832.64   -145111.06    26289.119    24726.308    560763.18   -145146.38 
  427250    299.98469     -73.4647    459583.83   -144985.84    26377.928    24495.871    561144.21    -145017.8 
  427500    299.90811    65.196214    458612.31   -145129.58    26371.194    24814.604    560662.18   -145159.22 
  427750    300.51008    -119.7504    460129.86   -144857.18    26424.126     24403.53    561359.08   -144886.92 
  428000    299.44286   -12.386333     460079.2   -145144.83    26330.285    24777.326    560682.97   -145178.49 
  428250    300.39819    26.272665    459542.28   -145109.27    26414.288    24830.331     560679.5   -145141.95 
  428500    301.39687    96.205985    459287.67   -145102.79    26502.103    24848.273    560644.73   -145129.65 
  428750     299.6693    49.849489    457488.44    -145593.4    26350.196     24830.45    560193.72   -145623.06 
  429000    300.22262   -152.12807    458977.14   -145232.62     26398.85    24438.662    560960.35   -145257.86 
  429250    299.71333   -38.603936    457548.06   -144963.92    26354.068    24436.002    561196.35   -144996.02 
  429500    300.60463    67.008894    458098.97    -145055.2     26432.44    24829.803    560717.19   -145089.66 
  429750    298.68848    41.245841    458980.58   -145371.61    26263.952    24871.009    560389.02    -145396.7 
  430000    300.79018   -84.534805    460630.23   -144844.69    26448.756     24492.22    561293.49   -144869.13 
  430250    299.43384   -257.46383    461102.76   -145037.66    26329.491     24224.96    561331.79   -145070.56 
  430500    299.17736   -4.8236335    459358.46   -145081.31    26306.939    24698.625    560837.04   -145114.71 
  430750    299.17786    68.305205    458976.03   -145152.36    26306.983     24780.07    560674.37   -145183.77 
  431000     301.2086   -20.775535    459352.21   -145234.61    26485.548    24691.296    560684.42    -145274.9 
  431250    297.57212    4.6108482    459320.63   -145290.12    26165.789    24831.264    560471.28   -145317.91 
  431500    302.05351   -164.81192    460739.39   -145088.01    26559.842    24429.767    561104.17   -145115.73 
  431750    301.38534    77.222083    460705.31   -144768.46    26501.089    24794.277    561038.71   -144797.81 
  432000    298.15234   -36.597949    460859.44   -144890.32    26216.809    24596.339    561132.35   -144918.84 
  432250     297.4367    174.42341     459232.6   -145216.01    26153.882    25076.184    560294.74   -145248.31 
  432500    300.11829   -112.16604    459970.92   -144781.87    26389.676    24408.767    561430.02   -144812.19 
  432750    299.40606   -104.80902    460127.97   -145145.81    26327.049    24555.276    560916.38   -145172.91 
  433000    301.81141    174.62803    459576.13   -144954.62    26538.553    25070.576    560580.94   -144978.08 
  433250    303.72283    48.807605    458901.04   -145315.89    26706.627    24861.275    560428.91   -145347.47 
  433500    301.01583   -35.242595     459743.5    -145175.1    26468.597    24694.883    560723.69   -145203.19 
  433750    299.25534   -122.49025     459126.2   -145085.32    26313.796    24401.256    561130.98   -145114.27 
  434000    300.97508   -134.50465    459480.33   -145288.14    26465.015    24512.494    560811.43   -145314.48 
  434250     300.0223    214.73207    458218.93    -145216.9    26381.236    25155.358    560220.73   -145245.69 
  434500    300.35086   -14.995783    458333.78   -145318.98    26410.126    24690.509    560594.11   -145348.83 
  434750    300.70886   -94.556343    458520.42   -145240.45    26441.605    24515.835    560870.94   -145267.99 
  435000    300.73378   -127.04635    460749.38   -144914.68    26443.796     24402.23     561299.4   -144945.89 
  435250    300.10163   -73.383334    461547.26   -144638.33    26388.211    24506.192    561446.58   -144663.54 
  435500    301.06801    83.530289    460431.48   -144739.08    26473.186    24808.858    561057.57   -144764.34 
  435750    300.63651   -116.06848    460695.26   -145034.26    26435.244    24465.917    561109.21   -145062.94 
  436000    299.85781   -97.986252    460219.94   -145047.88    26366.772    24611.228    560948.91    -145078.8 
  436250    301.15689   -29.585676    458668.97   -145176.11    26481.001    24597.286    560850.78   -145200.57 
  436500    300.26538    118.74064    459031.14   -145268.34    26402.609    24962.099    560364.26   -145296.01 
  436750    300.20895   -28.543658    460362.34   -145714.75    26397.648    24986.936    559912.29   -145742.18 
  437000    297.56575    111.20452    459921.61   -145274.51    26165.229    25016.861    560311.17   -145303.79 
  437250    300.27236    70.600205    459737.39   -145226.12    26403.224    24989.038    560401.73   -145251.18 
  437500    303.43838    51.839266    459181.57      -145212    26681.614    24823.434    560562.98   -145240.98 
  437750    299.56695    -38.83382    459425.37   -145457.03    26341.196    24806.117    560336.73    -145484.2 
  438000    299.45956    76.700241    457857.21   -145473.14    26331.754    24921.833    560204.63   -145500.14 
  438250    299.93117   -164.89867    458999.18   -145221.91    26373.222    24425.678    560963.58   -145245.27 
  438500    299.62603   -14.357615    458630.68   -145762.92    26346.391    24883.271    559979.46   -145787.32 
  438750    300.83633     -131.059    460720.05   -145187.77    26452.814    24536.027    560878.65   -145212.12 
  439000    300.40716    121.25057    459526.79    -145011.4    26415.077    24896.408    560703.57    -145034.7 
  439250    299.78626    95.782757    457989.84   -145182.06     26360.48    24856.364    560585.37   -145209.37 
  439500    299.14024    30.441988    458841.74   -145008.85    26303.676     24660.98    560932.74   -145040.14 
  439750    300.17936    16.023889    458782.01   -145142.46    26395.046    24729.853     560731.1   -145166.95 
  440000     300.9836    42.979997    459351.63    -144925.6    26465.763     24744.85    560940.39   -144957.57 
  440250    299.02684   -14.648884    458433.76   -145099.94    26293.704    24633.646    560874.57   -145126.17 
  440500    298.97688   -38.339675    458071.36   -145582.83    26289.311    24711.217    560346.45   -145610.02 
  440750    299.32887     150.0218    459202.15   -145236.95    26320.262    25053.057    560329.34   -145262.09 
  441000    299.27312   -53.629715    461663.54   -144850.33     26315.36    24687.584    561075.76    -144879.6 
  441250    297.66403   -32.830737    459660.03   -145229.97    26173.871    24712.639    560658.68   -145262.12 
  441500     298.8637   -43.597962    459765.31   -145059.48    26279.359    24680.663    560865.09   -145090.18 
  441750     299.6188    -161.5472    460159.91   -145349.67    26345.755    24563.857     560697.6   -145381.28 
  442000     301.1954   -82.113103    459834.51   -145305.33    26484.387    24644.427    560659.95   -145335.03 
  442250    298.53739    72.237031     457610.2   -145231.31    26250.666    24770.016    560614.07   -145259.62 
  442500    298.68875   -90.179865    458856.94    -145248.2    26263.976    24580.391    560793.42   -145278.92 
  442750    300.87189   -32.713611    459110.79   -145216.58    26455.941    24692.365    560687.77   -145252.17 
  443000    300.38173    12.345682    459560.05   -145136.71    26412.841     24751.91    560702.06    -145171.4 
  443250    301.08642    145.73755    458880.99   -145320.16    26474.805    25089.845    560195.17   -145351.93 
  443500    302.00854    42.510123     460619.6   -144919.99    26555.888    24752.546    560922.66   -144953.29 
  443750     300.3873   -29.491544    461772.58   -145236.19    26413.331    24891.282     560470.9   -145265.75 
  444000    298.08216    74.606522    460241.82   -145286.88    26210.638    25009.059    560316.57   -145322.95 
  444250    302.57326   -36.017436    459083.07   -145226.49    26605.544    24577.635    560806.46   -145260.94 
  444500    297.96732   -65.939069    459202.09   -145317.41    26200.539    24643.812    560642.81   -145345.44 
  444750    300.18416   -203.47991     460167.7   -145236.77    26395.468    24369.394    561015.63   -145271.09 
  445000    300.61754   -1.7334439    458705.72   -145122.07    26433.576    24656.123    560830.45   -145153.77 
  445250    297.94771   -81.633587    457527.88   -145049.73    26198.815     24474.56    561089.89   -145078.15 
  445500    299.09253    37.266382    458866.56    -145157.3     26299.48    24792.672    560650.16   -145180.68 
  445750    302.09786    -36.69124     459364.3   -145342.37    26563.742    24644.783    560632.09   -145368.33 
  446000    300.19996     131.4618    459162.64    -145143.3    26396.858    24870.497    560582.77      -145176 
  446250    299.78584    76.000035    460475.14    -144920.5    26360.443    24814.412    560893.05   -144952.59 
  446500    298.68652   -56.990044    459512.74   -145131.81    26263.779    24621.615    560849.63   -145164.84 
  446750    300.39551    16.333483     458960.8   -145323.68    26414.052    24771.119    560527.07   -145350.44 
  447000    299.34686   -7.1922071    458287.77   -145256.27    26321.843    24694.736    560663.01   -145282.49 
  447250    300.83067   -158.58607    458640.87   -145661.51    26452.317    24580.638    560381.44   -145691.19 
  447500    301.08944   -76.896918    459480.82    -144928.2     26475.07    24423.459    561255.62   -144961.91 
  447750    299.89988    138.16287    458794.01   -145110.98    26370.471    24991.416    560492.57   -145139.37 
  448000    300.61665   -47.738125    459637.84   -144973.83    26433.497     24544.15    561089.16    -145001.7 
  448250    299.61354   -65.084732    460814.35   -145190.03    26345.293    24692.635    560715.57   -145220.88 
  448500    299.67405    37.611103    459108.46   -144942.69    26350.614    24735.785    560921.39   -144974.69 
  448750    299.27201    129.44089    456582.52   -145494.46    26315.262    24993.489    560128.96   -145518.04 
  449000     298.5403   -138.76863    457870.11   -145436.99    26250.922    24461.377    560723.17   -145467.97 
  449250    299.60688    24.371005    457894.55   -145322.73    26344.707    24803.392    560478.54   -145357.84 
  449500    299.10723   -7.4123344    460111.49   -145097.09    26300.773    24789.611    560730.68   -145124.26 
  449750    301.11862   -52.996817    459218.65   -145333.02    26477.636    24685.526    560590.64   -145364.28 
  450000    299.78414     147.0337    459677.31   -145390.35    26360.294    25136.748     560084.7   -145416.67 
  450004    299.73382    170.52543    459690.72   -145359.03    26355.869    25182.889    560055.34   -145389.84 
Loop time of 44879.1 on 1 procs (1 MPI x 1 OpenMP) for 100000 steps with 44200 atoms

Pair  time (%) = 32478.5 (72.3688)
Bond  time (%) = 1.01144 (0.0022537)
Kspce time (%) = 3600.14 (8.02186)
Neigh time (%) = 5814.59 (12.9561)
Comm  time (%) = 105.601 (0.235302)
Outpt time (%) = 1.69144 (0.00376889)
Other time (%) = 2877.59 (6.41187)

FFT time (% of Kspce) = 808.281 (22.4514)
FFT Gflps 3d (1d only) = 1.52234 2.99622

Nlocal:    44200 ave 44200 max 44200 min
Histogram: 1 0 0 0 0 0 0 0 0 0
Nghost:    70146 ave 70146 max 70146 min
Histogram: 1 0 0 0 0 0 0 0 0 0
Neighs:    1.46268e+07 ave 1.46268e+07 max 1.46268e+07 min
Histogram: 1 0 0 0 0 0 0 0 0 0

Total # of neighbors = 14626831
Ave neighs/atom = 330.924
Ave special neighs/atom = 2.00851
Neighbor list builds = 11348
Dangerous builds = 0
write_restart   confout-4.data
PPPM initialization ...
  G vector (1/distance) = 0.263235
  grid = 90 25 25
  stencil order = 5
  estimated absolute RMS force accuracy = 0.040185
  estimated relative force accuracy = 0.000121016
  using double precision FFTs
  3d grid and FFT values/proc = 97280 56250
