ITEM: TIMESTEP
100
ITEM: NUMBER OF ATOMS
44200
ITEM: BOX BOUNDS pp pp pp
0 263
0 50
0 50
ITEM: ATOMS id mol type x y z ix iy iz 
1 1 1 1.39194 0.87294 1.8857 0 0 0 
2 1 2 1.3756 1.24736 2.84294 0 0 0 
3 1 2 1.33628 1.65784 1.23553 0 0 0 
4 2 1 1.3964 1.67404 5.2341 0 0 0 
5 2 2 1.39027 1.5686 6.24908 0 0 0 
6 2 2 1.37774 2.70698 5.01384 0 0 0 
7 3 1 1.38838 1.85763 8.45748 0 0 0 
8 3 2 1.39894 1.69782 9.4629 0 0 0 
9 3 2 1.39062 2.8764 8.28526 0 0 0 
10 4 1 1.38256 1.84446 11.9146 0 0 0 
11 4 2 1.39566 1.67603 12.9188 0 0 0 
12 4 2 1.40118 2.85704 11.7482 0 0 0 
13 5 1 1.38446 1.83403 15.3659 0 0 0 
14 5 2 1.38875 1.64243 16.3673 0 0 0 
15 5 2 1.40041 2.84736 15.2249 0 0 0 
16 6 1 1.37932 1.8204 18.7431 0 0 0 
17 6 2 1.38536 1.56402 19.7269 0 0 0 
18 6 2 1.4051 2.83331 18.6678 0 0 0 
19 7 1 1.34393 1.97581 22.2017 0 0 0 
20 7 2 1.39979 1.70202 23.1655 0 0 0 
21 7 2 1.41658 2.98563 22.1305 0 0 0 
22 8 1 1.31588 1.95156 26.9565 0 0 0 
23 8 2 1.42879 2.95881 26.9912 0 0 0 
24 8 2 1.43876 1.63463 26.0158 0 0 0 
25 9 1 1.38567 1.82082 30.2743 0 0 0 
26 9 2 1.3977 2.83418 30.3747 0 0 0 
27 9 2 1.38104 1.58937 29.2801 0 0 0 
28 10 1 1.38319 1.83688 33.6921 0 0 0 
29 10 2 1.3958 2.85287 33.8298 0 0 0 
30 10 2 1.3887 1.64283 32.6917 0 0 0 
31 11 1 1.38607 1.85852 37.1493 0 0 0 
32 11 2 1.39737 2.8759 37.2992 0 0 0 
33 11 2 1.39459 1.67502 36.1466 0 0 0 
34 12 1 1.39039 1.88347 40.61 0 0 0 
35 12 2 1.39219 2.90506 40.7557 0 0 0 
36 12 2 1.39668 1.69821 39.6066 0 0 0 
37 13 1 1.39246 1.72451 43.8397 0 0 0 
38 13 2 1.38538 2.74906 44.0523 0 0 0 
39 13 2 1.39031 1.60934 42.8235 0 0 0 
40 14 1 1.38703 0.891097 47.1648 0 0 0 
41 14 2 1.35613 1.68232 47.8121 0 0 0 
42 14 2 1.38306 1.25706 46.2072 0 0 0 
43 15 1 1.22608 4.70867 1.47233 0 0 0 
44 15 2 1.67775 5.09495 2.27758 0 0 0 
45 15 2 1.69914 5.0181 0.648336 0 0 0 
46 16 1 1.39516 4.44205 5.33788 0 0 0 
47 16 2 1.44792 4.64119 6.33877 0 0 0 
48 16 2 1.37485 5.31159 4.83407 0 0 0 
49 17 1 1.41095 4.94229 8.66552 0 0 0 
50 17 2 1.39271 4.79233 9.67593 0 0 0 
51 17 2 1.40345 5.95676 8.49017 0 0 0 
52 18 1 1.41641 5.05748 11.9874 0 0 0 
53 18 2 1.38621 4.87225 12.982 0 0 0 
54 18 2 1.39927 6.09902 11.8492 0 0 0 
55 19 1 1.41138 5.04279 15.4433 0 0 0 
56 19 2 1.39154 4.94995 16.4542 0 0 0 
57 19 2 1.38471 6.03656 15.2013 0 0 0 
58 20 1 1.40178 5.13718 18.8609 0 0 0 
59 20 2 1.3782 4.96688 19.8593 0 0 0 
60 20 2 1.40414 6.14107 18.6936 0 0 0 
61 21 1 1.39505 5.31674 22.3469 0 0 0 
62 21 2 1.38454 5.32488 23.3449 0 0 0 
63 21 2 1.41132 6.277 22.0116 0 0 0 
64 22 1 1.40352 5.26996 26.7761 0 0 0 
65 22 2 1.41506 6.2439 27.091 0 0 0 
66 22 2 1.36587 5.25271 25.7851 0 0 0 
67 23 1 1.39265 5.12969 30.174 0 0 0 
68 23 2 1.40731 6.13443 30.3693 0 0 0 
69 23 2 1.40086 4.99007 29.1706 0 0 0 
70 24 1 1.39628 5.04117 33.607 0 0 0 
71 24 2 1.39828 6.0369 33.8415 0 0 0 
72 24 2 1.40095 4.94475 32.595 0 0 0 
73 25 1 1.41391 5.04687 37.0814 0 0 0 
74 25 2 1.3757 6.06504 37.2748 0 0 0 
75 25 2 1.39331 4.91327 36.0752 0 0 0 
76 26 1 1.42434 4.99795 40.437 0 0 0 
77 26 2 1.38846 6.04675 40.5769 0 0 0 
78 26 2 1.38853 4.81336 39.4354 0 0 0 
79 27 1 1.40533 4.57627 43.7429 0 0 0 
80 27 2 1.36328 5.51211 44.1125 0 0 0 
81 27 2 1.41432 4.63058 42.7182 0 0 0 
82 28 1 1.32188 4.68322 47.6414 0 0 0 
83 28 2 1.57269 5.5198 48.1279 0 0 0 
84 28 2 1.49354 4.81031 46.6602 0 0 0 
85 29 1 1.27141 8.90921 2.07027 0 0 0 
86 29 2 1.53697 9.88131 2.09747 0 0 0 
87 29 2 1.80804 8.43588 1.35537 0 0 0 
88 30 1 1.41618 8.7507 5.57779 0 0 0 
89 30 2 1.39904 9.76604 5.55308 0 0 0 
90 30 2 1.34153 8.39776 4.61995 0 0 0 
91 31 1 1.42137 8.16452 8.50549 0 0 0 
92 31 2 1.41115 9.0926 8.8848 0 0 0 
93 31 2 1.39148 8.22627 7.46898 0 0 0 
94 32 1 1.44897 7.8723 12.2772 0 0 0 
95 32 2 1.38239 8.33774 13.1762 0 0 0 
96 32 2 1.40762 8.56231 11.5392 0 0 0 
97 33 1 1.41092 8.45388 15.604 0 0 0 
98 33 2 1.38042 8.30783 16.6088 0 0 0 
99 33 2 1.42491 9.44806 15.4165 0 0 0 
100 34 1 1.39691 8.5466 18.9088 0 0 0 
101 34 2 1.37777 8.45845 19.9113 0 0 0 
102 34 2 1.41711 9.53575 18.666 0 0 0 
103 35 1 1.39335 8.72724 22.5991 0 0 0 
104 35 2 1.38712 9.12268 23.5249 0 0 0 
105 35 2 1.40657 9.48771 21.9364 0 0 0 
106 36 1 1.39923 8.65347 26.6753 0 0 0 
107 36 2 1.39323 9.60206 27.093 0 0 0 
108 36 2 1.38273 8.74912 25.6882 0 0 0 
109 37 1 1.39736 8.56688 30.098 0 0 0 
110 37 2 1.3885 9.56837 30.3548 0 0 0 
111 37 2 1.39256 8.49857 29.0939 0 0 0 
112 38 1 1.39526 8.5601 33.526 0 0 0 
113 38 2 1.40334 9.57764 33.6538 0 0 0 
114 38 2 1.39393 8.36298 32.5301 0 0 0 
115 39 1 1.41047 8.14523 36.6951 0 0 0 
116 39 2 1.44734 9.06956 37.1007 0 0 0 
117 39 2 1.3901 8.23476 35.6754 0 0 0 
118 40 1 1.41509 7.79928 40.5394 0 0 0 
119 40 2 1.38391 8.22721 41.4732 0 0 0 
120 40 2 1.44592 8.52954 39.839 0 0 0 
121 41 1 1.4328 8.65338 43.6257 0 0 0 
122 41 2 1.34623 8.41753 44.6164 0 0 0 
123 41 2 1.44355 9.65912 43.5274 0 0 0 
124 42 1 1.35288 8.85292 47.092 0 0 0 
125 42 2 1.80364 8.56576 47.9553 0 0 0 
126 42 2 1.43615 9.85667 46.9886 0 0 0 
127 43 1 1.42109 12.2607 2.07891 0 0 0 
128 43 2 1.38975 13.2724 2.12399 0 0 0 
129 43 2 1.51948 11.9725 1.12278 0 0 0 
130 44 1 1.39864 12.1049 5.53539 0 0 0 
131 44 2 1.4162 13.1097 5.66898 0 0 0 
132 44 2 1.34788 11.9049 4.53993 0 0 0 
133 45 1 1.38735 12.1757 9.12122 0 0 0 
134 45 2 1.39804 13.1902 9.1311 0 0 0 
135 45 2 1.39136 11.8555 8.1576 0 0 0 
136 46 1 1.40788 12.213 12.5839 0 0 0 
137 46 2 1.37137 13.2283 12.5827 0 0 0 
138 46 2 1.40107 11.8829 11.6155 0 0 0 
139 47 1 1.404 12.1018 15.9362 0 0 0 
140 47 2 1.37795 13.1078 16.0782 0 0 0 
141 47 2 1.39493 11.9134 14.9248 0 0 0 
142 48 1 1.39387 12.0393 19.3986 0 0 0 
143 48 2 1.3903 13.0315 19.6368 0 0 0 
144 48 2 1.39589 11.9468 18.3803 0 0 0 
145 49 1 1.39203 12.025 22.8949 0 0 0 
146 49 2 1.39233 12.9929 23.2387 0 0 0 
147 49 2 1.39662 12.0388 21.8821 0 0 0 
148 50 1 1.40052 11.889 26.3265 0 0 0 
149 50 2 1.40175 12.7756 26.8434 0 0 0 
150 50 2 1.39197 12.0953 25.3413 0 0 0 
151 51 1 1.37932 11.7009 29.7521 0 0 0 
152 51 2 1.43464 12.1022 30.6831 0 0 0 
153 51 2 1.40759 12.4529 29.0712 0 0 0 
154 52 1 1.37203 11.8539 33.2856 0 0 0 
155 52 2 1.42621 11.8263 34.3093 0 0 0 
156 52 2 1.43027 12.8198 32.9806 0 0 0 
157 53 1 1.40029 12.1041 36.6346 0 0 0 
158 53 2 1.41873 11.8904 37.6366 0 0 0 
159 53 2 1.40005 13.1103 36.5148 0 0 0 
160 54 1 1.45029 12.2165 39.9371 0 0 0 
161 54 2 1.39677 11.8731 40.8906 0 0 0 
162 54 2 1.37446 13.2287 39.9433 0 0 0 
163 55 1 1.4649 12.1248 43.4883 0 0 0 
164 55 2 1.36606 11.9176 44.4753 0 0 0 
165 55 2 1.38114 13.1261 43.3498 0 0 0 
166 56 1 1.44363 12.2543 47.0329 0 0 0 
167 56 2 1.60456 12.0445 48.0058 0 0 0 
168 56 2 1.35136 13.2607 46.9175 0 0 0 
169 57 1 1.39494 15.7155 2.00457 0 0 0 
170 57 2 1.36503 16.7177 2.18717 0 0 0 
171 57 2 1.53328 15.566 1.02718 0 0 0 
172 58 1 1.41041 15.6116 5.54992 0 0 0 
173 58 2 1.40665 16.6186 5.68524 0 0 0 
174 58 2 1.35762 15.4121 4.55665 0 0 0 
175 59 1 1.39837 15.578 9.01817 0 0 0 
176 59 2 1.40759 16.585 9.15214 0 0 0 
177 59 2 1.37418 15.3787 8.02064 0 0 0 
178 60 1 1.395 15.5725 12.5323 0 0 0 
179 60 2 1.39913 16.5824 12.6533 0 0 0 
180 60 2 1.38762 15.3616 11.5363 0 0 0 
181 61 1 1.39775 15.5671 16.0321 0 0 0 
182 61 2 1.39543 16.5773 16.1536 0 0 0 
183 61 2 1.39383 15.3574 15.0334 0 0 0 
184 62 1 1.39693 15.5514 19.4883 0 0 0 
185 62 2 1.39584 16.5566 19.6465 0 0 0 
186 62 2 1.3963 15.3768 18.4822 0 0 0 
187 63 1 1.39555 15.4777 22.8523 0 0 0 
188 63 2 1.39115 16.4544 23.1334 0 0 0 
189 63 2 1.39734 15.4226 21.8381 0 0 0 
190 64 1 1.37868 15.1859 26.2386 0 0 0 
191 64 2 1.39085 15.8506 27.012 0 0 0 
192 64 2 1.39955 15.6916 25.3704 0 0 0 
193 65 1 1.35712 15.4738 29.7087 0 0 0 
194 65 2 1.41597 15.3634 30.7271 0 0 0 
195 65 2 1.39861 16.4666 29.4766 0 0 0 
196 66 1 1.34508 15.6227 33.0369 0 0 0 
197 66 2 1.42698 15.361 34.0199 0 0 0 
198 66 2 1.40357 16.6349 32.9595 0 0 0 
199 67 1 1.38873 15.6045 36.5194 0 0 0 
200 67 2 1.40126 15.3775 37.5065 0 0 0 
201 67 2 1.39009 16.6172 36.4137 0 0 0 
202 68 1 1.45612 15.5924 40.0541 0 0 0 
203 68 2 1.36648 15.4086 41.0472 0 0 0 
204 68 2 1.36549 16.5949 39.893 0 0 0 
205 69 1 1.46535 15.6186 43.483 0 0 0 
206 69 2 1.37175 15.4199 44.4712 0 0 0 
207 69 2 1.3684 16.6218 43.3359 0 0 0 
208 70 1 1.42887 15.7195 47.1077 0 0 0 
209 70 2 1.58191 15.6496 48.0957 0 0 0 
210 70 2 1.33217 16.703 46.8552 0 0 0 
211 71 1 1.38197 19.1793 1.97245 0 0 0 
212 71 2 1.35566 20.1707 2.22275 0 0 0 
213 71 2 1.57368 19.0991 0.995531 0 0 0 
214 72 1 1.40144 19.0849 5.53779 0 0 0 
215 72 2 1.41652 20.0893 5.71506 0 0 0 
216 72 2 1.37722 18.931 4.53706 0 0 0 
217 73 1 1.40026 19.0778 9.02014 0 0 0 
218 73 2 1.41589 20.0865 9.15504 0 0 0 
219 73 2 1.37127 18.8814 8.02291 0 0 0 
220 74 1 1.39149 19.0798 12.5277 0 0 0 
221 74 2 1.41244 20.0897 12.6379 0 0 0 
222 74 2 1.38426 18.859 11.5337 0 0 0 
223 75 1 1.39009 19.0733 16.0276 0 0 0 
224 75 2 1.40975 20.082 16.1368 0 0 0 
225 75 2 1.39516 18.851 15.0319 0 0 0 
226 76 1 1.39067 19.0678 19.5082 0 0 0 
227 76 2 1.40753 20.075 19.629 0 0 0 
228 76 2 1.39913 18.8547 18.5103 0 0 0 
229 77 1 1.38859 19.0612 22.9324 0 0 0 
230 77 2 1.40554 20.0634 23.0789 0 0 0 
231 77 2 1.39877 18.8679 21.9317 0 0 0 
232 78 1 1.35672 18.8177 26.2434 0 0 0 
233 78 2 1.41756 19.6527 26.8102 0 0 0 
234 78 2 1.40868 19.0638 25.2688 0 0 0 
235 79 1 1.43611 18.8744 29.7293 0 0 0 
236 79 2 1.39959 18.905 30.7533 0 0 0 
237 79 2 1.361 19.8213 29.3679 0 0 0 
238 80 1 1.42857 19.1333 33.0919 0 0 0 
239 80 2 1.41062 18.8851 34.0811 0 0 0 
240 80 2 1.37359 20.1624 33.0063 0 0 0 
241 81 1 1.42391 19.1066 36.5526 0 0 0 
242 81 2 1.41394 18.9209 37.5502 0 0 0 
243 81 2 1.36625 20.1176 36.405 0 0 0 
244 82 1 1.42405 19.0803 40.0553 0 0 0 
245 82 2 1.39455 18.9243 41.0555 0 0 0 
246 82 2 1.37993 20.0867 39.8766 0 0 0 
247 83 1 1.4258 19.0798 43.4993 0 0 0 
248 83 2 1.41388 18.946 44.4998 0 0 0 
249 83 2 1.38783 20.082 43.2995 0 0 0 
250 84 1 1.41073 19.1828 47.1571 0 0 0 
251 84 2 1.60378 19.1992 48.1396 0 0 0 
252 84 2 1.33187 20.1446 46.8214 0 0 0 
253 85 1 1.37007 22.6563 1.95787 0 0 0 
254 85 2 1.34381 23.6437 2.22783 0 0 0 
255 85 2 1.62468 22.5943 0.992734 0 0 0 
256 86 1 1.3982 22.576 5.54333 0 0 0 
257 86 2 1.39993 23.583 5.71244 0 0 0 
258 86 2 1.41294 22.4153 4.54256 0 0 0 
259 87 1 1.3986 22.5892 9.02756 0 0 0 
260 87 2 1.38827 23.6035 9.13394 0 0 0 
261 87 2 1.398 22.3662 8.03399 0 0 0 
262 88 1 1.39152 22.6164 12.5289 0 0 0 
263 88 2 1.3805 23.6306 12.5979 0 0 0 
264 88 2 1.39898 22.3571 11.5409 0 0 0 
265 89 1 1.383 22.6211 16.0242 0 0 0 
266 89 2 1.38775 23.6311 16.0926 0 0 0 
267 89 2 1.40142 22.3582 15.035 0 0 0 
268 90 1 1.37451 22.6073 19.5209 0 0 0 
269 90 2 1.40592 23.6156 19.612 0 0 0 
270 90 2 1.40799 22.3616 18.5298 0 0 0 
271 91 1 1.37923 22.6002 23.0136 0 0 0 
272 91 2 1.41109 23.6087 23.1294 0 0 0 
273 91 2 1.40554 22.376 22.0204 0 0 0 
274 92 1 1.36165 22.618 26.4623 0 0 0 
275 92 2 1.43161 23.621 26.5993 0 0 0 
276 92 2 1.40033 22.4057 25.4653 0 0 0 
277 93 1 1.41426 22.3279 29.7294 0 0 0 
278 93 2 1.43199 23.1071 30.3762 0 0 0 
279 93 2 1.37408 22.6761 28.784 0 0 0 
280 94 1 1.45231 22.3467 33.2522 0 0 0 
281 94 2 1.43185 22.4393 34.2699 0 0 0 
282 94 2 1.34739 23.2687 32.8397 0 0 0 
283 95 1 1.4395 22.5904 36.6339 0 0 0 
284 95 2 1.40986 22.4064 37.6326 0 0 0 
285 95 2 1.3927 23.6175 36.4855 0 0 0 
286 96 1 1.41968 22.5501 40.0849 0 0 0 
287 96 2 1.39914 22.4385 41.0919 0 0 0 
288 96 2 1.39164 23.5514 39.8629 0 0 0 
289 97 1 1.40653 22.556 43.5132 0 0 0 
290 97 2 1.4401 22.4465 44.516 0 0 0 
291 97 2 1.39578 23.5545 43.2913 0 0 0 
292 98 1 1.40051 22.6614 47.1831 0 0 0 
293 98 2 1.6296 22.7038 48.1584 0 0 0 
294 98 2 1.32927 23.6148 46.8217 0 0 0 
295 99 1 1.34996 26.1387 1.95297 0 0 0 
296 99 2 1.34277 27.1276 2.21361 0 0 0 
297 99 2 1.68654 26.0554 1.01249 0 0 0 
298 100 1 1.38251 26.0557 5.54425 0 0 0 
299 100 2 1.40749 27.0624 5.70338 0 0 0 
300 100 2 1.44224 25.884 4.54566 0 0 0 
301 101 1 1.38355 26.0656 9.0133 0 0 0 
302 101 2 1.39196 27.0788 9.12571 0 0 0 
303 101 2 1.42571 25.8497 8.01625 0 0 0 
304 102 1 1.42348 26.1122 12.516 0 0 0 
305 102 2 1.3637 27.1282 12.5889 0 0 0 
306 102 2 1.43602 25.8577 11.5204 0 0 0 
307 103 1 1.45925 26.1494 16.0174 0 0 0 
308 103 2 1.35001 27.1665 16.0737 0 0 0 
309 103 2 1.41491 25.8677 15.0281 0 0 0 
310 104 1 1.4382 26.141 19.5303 0 0 0 
311 104 2 1.36128 27.1579 19.6225 0 0 0 
312 104 2 1.38058 25.8912 18.539 0 0 0 
313 105 1 1.40909 26.1191 23.0592 0 0 0 
314 105 2 1.39058 27.1292 23.2071 0 0 0 
315 105 2 1.38605 25.9267 22.0602 0 0 0 
316 106 1 1.38934 26.1198 26.5709 0 0 0 
317 106 2 1.40484 27.1272 26.7357 0 0 0 
318 106 2 1.40014 25.9456 25.5723 0 0 0 
319 107 1 1.38281 26.1676 30.0289 0 0 0 
320 107 2 1.41863 27.1761 30.1607 0 0 0 
321 107 2 1.38874 25.9585 29.0329 0 0 0 
322 108 1 1.46687 25.915 33.2341 0 0 0 
323 108 2 1.40889 26.7956 33.7285 0 0 0 
324 108 2 1.35129 26.0802 32.2396 0 0 0 
325 109 1 1.46908 25.7172 36.7885 0 0 0 
326 109 2 1.40947 25.9951 37.7636 0 0 0 
327 109 2 1.37402 26.5452 36.2085 0 0 0 
328 110 1 1.43963 26.0328 40.1781 0 0 0 
329 110 2 1.38375 25.9166 41.1838 0 0 0 
330 110 2 1.40492 27.0403 39.9587 0 0 0 
331 111 1 1.40051 26.0424 43.5305 0 0 0 
332 111 2 1.44362 25.9407 44.5347 0 0 0 
333 111 2 1.39726 27.039 43.2998 0 0 0 
334 112 1 1.39373 26.1481 47.1928 0 0 0 
335 112 2 1.65369 26.1791 48.1634 0 0 0 
336 112 2 1.32663 27.1043 46.8405 0 0 0 
337 113 1 1.33262 29.6346 1.96147 0 0 0 
338 113 2 1.35832 30.6292 2.18278 0 0 0 
339 113 2 1.74185 29.4921 1.05381 0 0 0 
340 114 1 1.38696 29.5528 5.54557 0 0 0 
341 114 2 1.41361 30.5607 5.6726 0 0 0 
342 114 2 1.43637 29.3489 4.54982 0 0 0 
343 115 1 1.39151 29.532 8.98196 0 0 0 
344 115 2 1.39438 30.5437 9.09651 0 0 0 
345 115 2 1.41939 29.3175 7.98097 0 0 0 
346 116 1 1.41624 29.5276 12.4624 0 0 0 
347 116 2 1.36941 30.5462 12.5709 0 0 0 
348 116 2 1.43486 29.3061 11.4567 0 0 0 
349 117 1 1.44467 29.5298 15.995 0 0 0 
350 117 2 1.33178 30.5488 16.1748 0 0 0 
351 117 2 1.44392 29.3675 14.9673 0 0 0 
352 118 1 1.45167 29.5971 19.5655 0 0 0 
353 118 2 1.33935 30.5914 19.8447 0 0 0 
354 118 2 1.41521 29.5297 18.5302 0 0 0 
355 119 1 1.43301 29.6339 23.1138 0 0 0 
356 119 2 1.38484 30.6339 23.3619 0 0 0 
357 119 2 1.36829 29.5384 22.1018 0 0 0 
358 120 1 1.40165 29.6223 26.6074 0 0 0 
359 120 2 1.39774 30.6252 26.8229 0 0 0 
360 120 2 1.39123 29.5023 25.6022 0 0 0 
361 121 1 1.39764 29.6221 30.0649 0 0 0 
362 121 2 1.40155 30.6263 30.2627 0 0 0 
363 121 2 1.39232 29.4863 29.0604 0 0 0 
364 122 1 1.40851 29.6521 33.4717 0 0 0 
365 122 2 1.40229 30.6579 33.6323 0 0 0 
366 122 2 1.3774 29.4756 32.4694 0 0 0 
367 123 1 1.51869 29.3093 36.7047 0 0 0 
368 123 2 1.37652 30.1276 37.2844 0 0 0 
369 123 2 1.3645 29.5601 35.7325 0 0 0 
370 124 1 1.47639 29.2874 40.3258 0 0 0 
371 124 2 1.3578 29.4132 41.3219 0 0 0 
372 124 2 1.41378 30.1993 39.8677 0 0 0 
373 125 1 1.39636 29.5344 43.5727 0 0 0 
374 125 2 1.42912 29.4235 44.578 0 0 0 
375 125 2 1.39807 30.5302 43.3494 0 0 0 
376 126 1 1.39459 29.6398 47.1927 0 0 0 
377 126 2 1.67704 29.6376 48.161 0 0 0 
378 126 2 1.3229 30.6049 46.872 0 0 0 
379 127 1 1.30022 33.1685 1.96539 0 0 0 
380 127 2 1.42495 34.1568 2.15766 0 0 0 
381 127 2 1.78615 32.9352 1.11317 0 0 0 
382 128 1 1.41155 33.0614 5.53846 0 0 0 
383 128 2 1.44898 34.0695 5.64446 0 0 0 
384 128 2 1.39987 32.8379 4.54421 0 0 0 
385 129 1 1.3962 33.0105 8.96077 0 0 0 
386 129 2 1.4469 34.0178 9.07618 0 0 0 
387 129 2 1.40721 32.795 7.96008 0 0 0 
388 130 1 1.40194 32.9503 12.4372 0 0 0 
389 130 2 1.4086 33.9593 12.5907 0 0 0 
390 130 2 1.42804 32.7696 11.4235 0 0 0 
391 131 1 1.43455 32.9246 15.976 0 0 0 
392 131 2 1.3541 33.8849 16.3411 0 0 0 
393 131 2 1.43287 32.9555 14.9361 0 0 0 
394 132 1 1.42251 33.0634 19.507 0 0 0 
395 132 2 1.36338 33.9465 20.0289 0 0 0 
396 132 2 1.42269 33.276 18.5016 0 0 0 
397 133 1 1.41008 33.128 23.0974 0 0 0 
398 133 2 1.39365 34.0851 23.4909 0 0 0 
399 133 2 1.38518 33.195 22.0882 0 0 0 
400 134 1 1.40196 33.1112 26.601 0 0 0 
401 134 2 1.39651 34.1054 26.8796 0 0 0 
402 134 2 1.39057 33.0597 25.5924 0 0 0 
403 135 1 1.40597 33.1074 30.0551 0 0 0 
404 135 2 1.39091 34.1124 30.2901 0 0 0 
405 135 2 1.3888 33.0121 29.0473 0 0 0 
406 136 1 1.42421 33.1502 33.4776 0 0 0 
407 136 2 1.39373 34.1827 33.6194 0 0 0 
408 136 2 1.37397 32.963 32.4808 0 0 0 
409 137 1 1.47396 32.9013 36.747 0 0 0 
410 137 2 1.38543 33.8518 37.0816 0 0 0 
411 137 2 1.38464 32.9009 35.7279 0 0 0 
412 138 1 1.50362 32.6668 40.3426 0 0 0 
413 138 2 1.33052 32.9663 41.2902 0 0 0 
414 138 2 1.40524 33.4559 39.7154 0 0 0 
415 139 1 1.39156 33.032 43.6093 0 0 0 
416 139 2 1.42217 32.8843 44.6116 0 0 0 
417 139 2 1.45992 34.0247 43.4187 0 0 0 
418 140 1 1.40739 33.1508 47.1797 0 0 0 
419 140 2 1.7102 33.093 48.1436 0 0 0 
420 140 2 1.35356 34.1288 46.9057 0 0 0 
421 141 1 1.30631 36.7514 2.02195 0 0 0 
422 141 2 1.40927 37.753 2.13823 0 0 0 
423 141 2 1.66727 36.4841 1.12133 0 0 0 
424 142 1 1.44479 36.6534 5.54715 0 0 0 
425 142 2 1.37652 37.6644 5.64882 0 0 0 
426 142 2 1.35576 36.4155 4.56024 0 0 0 
427 143 1 1.45764 36.6446 9.01703 0 0 0 
428 143 2 1.36097 37.6555 9.12873 0 0 0 
429 143 2 1.38296 36.4153 8.02664 0 0 0 
430 144 1 1.42576 36.6384 12.5315 0 0 0 
431 144 2 1.36802 37.6551 12.6455 0 0 0 
432 144 2 1.3909 36.4183 11.5366 0 0 0 
433 145 1 1.40621 36.5911 15.9884 0 0 0 
434 145 2 1.3809 37.6006 16.1802 0 0 0 
435 145 2 1.38508 36.4503 14.9771 0 0 0 
436 146 1 1.39323 36.5192 19.4599 0 0 0 
437 146 2 1.39137 37.4992 19.7809 0 0 0 
438 146 2 1.3961 36.5132 18.4424 0 0 0 
439 147 1 1.3918 36.5241 23.0024 0 0 0 
440 147 2 1.39515 37.5036 23.3548 0 0 0 
441 147 2 1.40569 36.5525 21.9908 0 0 0 
442 148 1 1.39375 36.544 26.4934 0 0 0 
443 148 2 1.4032 37.5551 26.7614 0 0 0 
444 148 2 1.40222 36.4886 25.4796 0 0 0 
445 149 1 1.3991 36.4537 29.9012 0 0 0 
446 149 2 1.41873 37.4339 30.1971 0 0 0 
447 149 2 1.39246 36.4261 28.8777 0 0 0 
448 150 1 1.42733 36.1613 33.3082 0 0 0 
449 150 2 1.42376 36.8855 34.0103 0 0 0 
450 150 2 1.3805 36.5942 32.3884 0 0 0 
451 151 1 1.46161 36.3832 36.8262 0 0 0 
452 151 2 1.39843 36.4814 37.837 0 0 0 
453 151 2 1.37633 37.2923 36.3969 0 0 0 
454 152 1 1.42292 36.6535 40.0884 0 0 0 
455 152 2 1.38827 36.4157 41.0764 0 0 0 
456 152 2 1.40501 37.6632 39.9862 0 0 0 
457 153 1 1.43296 36.6181 43.5191 0 0 0 
458 153 2 1.38113 36.4406 44.514 0 0 0 
459 153 2 1.42272 37.6216 43.3602 0 0 0 
460 154 1 1.38511 36.7246 47.1335 0 0 0 
461 154 2 1.67282 36.6141 48.0948 0 0 0 
462 154 2 1.38776 37.7121 46.896 0 0 0 
463 155 1 1.39155 40.292 1.9885 0 0 0 
464 155 2 1.39043 41.2796 2.23424 0 0 0 
465 155 2 1.45319 40.2032 0.997428 0 0 0 
466 156 1 1.39141 40.1404 5.53991 0 0 0 
467 156 2 1.42283 41.1346 5.76309 0 0 0 
468 156 2 1.34247 40.0323 4.53339 0 0 0 
469 157 1 1.37833 40.0962 9.00312 0 0 0 
470 157 2 1.41949 41.091 9.23171 0 0 0 
471 157 2 1.37304 39.9949 7.99302 0 0 0 
472 158 1 1.38251 40.0813 12.4989 0 0 0 
473 158 2 1.40645 41.0785 12.7247 0 0 0 
474 158 2 1.39237 39.9776 11.4891 0 0 0 
475 159 1 1.38999 40.0554 15.9664 0 0 0 
476 159 2 1.39901 41.0501 16.209 0 0 0 
477 159 2 1.40213 39.968 14.9551 0 0 0 
478 160 1 1.38795 39.9903 19.393 0 0 0 
479 160 2 1.39161 40.966 19.7064 0 0 0 
480 160 2 1.4091 39.9751 18.3796 0 0 0 
481 161 1 1.37559 39.8133 22.7578 0 0 0 
482 161 2 1.38624 40.7256 23.2243 0 0 0 
483 161 2 1.41793 39.9639 21.7612 0 0 0 
484 162 1 1.37827 39.5965 26.3332 0 0 0 
485 162 2 1.40648 40.0666 27.229 0 0 0 
486 162 2 1.39778 40.3019 25.6005 0 0 0 
487 163 1 1.3803 39.94 29.8041 0 0 0 
488 163 2 1.41221 39.9679 30.8217 0 0 0 
489 163 2 1.38948 40.8925 29.4488 0 0 0 
490 164 1 1.39692 40.1472 33.1003 0 0 0 
491 164 2 1.40325 39.984 34.1049 0 0 0 
492 164 2 1.38928 41.149 32.9284 0 0 0 
493 165 1 1.38276 40.1724 36.511 0 0 0 
494 165 2 1.40051 39.9778 37.5045 0 0 0 
495 165 2 1.39731 41.181 36.3708 0 0 0 
496 166 1 1.38745 40.1341 40.052 0 0 0 
497 166 2 1.36793 40.032 41.0553 0 0 0 
498 166 2 1.41217 41.1272 39.8206 0 0 0 
499 167 1 1.42911 40.1663 43.5241 0 0 0 
500 167 2 1.30794 40.0797 44.523 0 0 0 
501 167 2 1.41457 41.1551 43.2731 0 0 0 
502 168 1 1.39843 40.3218 47.1042 0 0 0 
503 168 2 1.47002 40.2718 48.1023 0 0 0 
504 168 2 1.38043 41.3008 46.8231 0 0 0 
505 169 1 1.39548 43.8421 1.90789 0 0 0 
506 169 2 1.41167 44.7767 2.32643 0 0 0 
507 169 2 1.38314 43.9407 0.917689 0 0 0 
508 170 1 1.40181 43.7141 5.54779 0 0 0 
509 170 2 1.42117 44.715 5.78621 0 0 0 
510 170 2 1.34357 43.6216 4.54575 0 0 0 
511 171 1 1.39522 43.6482 8.9897 0 0 0 
512 171 2 1.40661 44.6574 9.19 0 0 0 
513 171 2 1.38693 43.5174 7.98245 0 0 0 
514 172 1 1.3945 43.6 12.4731 0 0 0 
515 172 2 1.40067 44.608 12.6675 0 0 0 
516 172 2 1.40166 43.4634 11.4653 0 0 0 
517 173 1 1.39474 43.5503 15.9424 0 0 0 
518 173 2 1.39946 44.5511 16.1554 0 0 0 
519 173 2 1.40892 43.4311 14.9331 0 0 0 
520 174 1 1.38862 43.4888 19.3683 0 0 0 
521 174 2 1.41038 44.4716 19.6467 0 0 0 
522 174 2 1.42025 43.4338 18.3562 0 0 0 
523 175 1 1.28362 43.1977 22.6439 0 0 0 
524 175 2 1.48863 44.0459 23.1681 0 0 0 
525 175 2 1.47598 43.3654 21.6661 0 0 0 
526 176 1 1.24655 43.1337 26.3785 0 0 0 
527 176 2 1.47629 43.3264 27.3473 0 0 0 
528 176 2 1.52269 43.9263 25.8115 0 0 0 
529 177 1 1.37369 43.5046 29.6998 0 0 0 
530 177 2 1.42419 43.4002 30.7094 0 0 0 
531 177 2 1.42328 44.4942 29.466 0 0 0 
532 178 1 1.3984 43.5695 33.1006 0 0 0 
533 178 2 1.40939 43.4204 34.1053 0 0 0 
534 178 2 1.39853 44.574 32.9154 0 0 0 
535 179 1 1.39428 43.6068 36.5835 0 0 0 
536 179 2 1.40359 43.467 37.5885 0 0 0 
537 179 2 1.4013 44.6132 36.3903 0 0 0 
538 180 1 1.39099 43.6481 40.0772 0 0 0 
539 180 2 1.38919 43.5359 41.0835 0 0 0 
540 180 2 1.40868 44.6522 39.8574 0 0 0 
541 181 1 1.3998 43.7095 43.5204 0 0 0 
542 181 2 1.33432 43.6505 44.5234 0 0 0 
543 181 2 1.42655 44.7027 43.2505 0 0 0 
544 182 1 1.38747 43.8525 47.1716 0 0 0 
545 182 2 1.39147 43.9808 48.161 0 0 0 
546 182 2 1.41208 44.774 46.7277 0 0 0 
547 183 1 1.39826 47.3744 1.90208 0 0 0 
548 183 2 1.44871 48.2614 2.42623 0 0 0 
549 183 2 1.32193 47.601 0.927776 0 0 0 
550 184 1 1.39153 46.9483 5.51244 0 0 0 
551 184 2 1.40858 47.908 5.86771 0 0 0 
552 184 2 1.3354 46.9852 4.4995 0 0 0 
553 185 1 1.39399 46.8055 8.95068 0 0 0 
554 185 2 1.37138 47.7872 9.22327 0 0 0 
555 185 2 1.39104 46.7505 7.93309 0 0 0 
556 186 1 1.39406 46.7947 12.4432 0 0 0 
557 186 2 1.36724 47.7851 12.6715 0 0 0 
558 186 2 1.40794 46.6934 11.4295 0 0 0 
559 187 1 1.39409 46.8176 15.9256 0 0 0 
560 187 2 1.36444 47.8092 16.1326 0 0 0 
561 187 2 1.4084 46.6942 14.9161 0 0 0 
562 188 1 1.33396 46.8472 19.3534 0 0 0 
563 188 2 1.38414 47.8337 19.5654 0 0 0 
564 188 2 1.41006 46.7203 18.3518 0 0 0 
565 189 1 1.58428 46.6603 22.6191 0 0 0 
566 189 2 1.16327 47.3938 23.1519 0 0 0 
567 189 2 1.27056 46.7134 21.6627 0 0 0 
568 190 1 1.64744 46.7462 26.4131 0 0 0 
569 190 2 1.28148 46.671 27.3511 0 0 0 
570 190 2 1.03732 47.3079 25.8548 0 0 0 
571 191 1 1.32195 46.8609 29.7093 0 0 0 
572 191 2 1.41078 46.7135 30.7066 0 0 0 
573 191 2 1.38572 47.851 29.5138 0 0 0 
574 192 1 1.39455 46.8259 33.1267 0 0 0 
575 192 2 1.40778 46.6991 34.1349 0 0 0 
576 192 2 1.3655 47.8171 32.9219 0 0 0 
577 193 1 1.39369 46.7994 36.6105 0 0 0 
578 193 2 1.40839 46.7043 37.6231 0 0 0 
579 193 2 1.36802 47.7873 36.3751 0 0 0 
580 194 1 1.39347 46.8068 40.1061 0 0 0 
581 194 2 1.39086 46.7668 41.1228 0 0 0 
582 194 2 1.37274 47.7833 39.8182 0 0 0 
583 195 1 1.38987 46.9493 43.5462 0 0 0 
584 195 2 1.33149 47.0025 44.5584 0 0 0 
585 195 2 1.41236 47.9021 43.176 0 0 0 
586 196 1 1.39578 47.3842 47.1754 0 0 0 
587 196 2 1.3216 47.6298 48.1474 0 0 0 
588 196 2 1.45233 48.2593 46.6365 0 0 0 
589 197 1 4.98254 0.894811 1.91074 0 0 0 
590 197 2 4.96314 1.25303 2.8758 0 0 0 
591 197 2 4.93128 1.68583 1.2733 0 0 0 
592 198 1 4.98286 1.76389 5.14179 0 0 0 
593 198 2 4.97273 1.66188 6.16164 0 0 0 
594 198 2 4.9498 2.7712 4.91538 0 0 0 
595 199 1 4.97253 1.88646 8.42894 0 0 0 
596 199 2 4.97964 1.72041 9.43515 0 0 0 
597 199 2 4.97089 2.90556 8.26206 0 0 0 
598 200 1 4.96547 1.87146 11.9015 0 0 0 
599 200 2 4.9769 1.69302 12.904 0 0 0 
600 200 2 4.99031 2.88973 11.7445 0 0 0 
601 201 1 4.97069 1.85487 15.3547 0 0 0 
602 201 2 4.96282 1.6607 16.3557 0 0 0 
603 201 2 4.98536 2.86843 15.2162 0 0 0 
604 202 1 4.9579 1.85282 18.725 0 0 0 
605 202 2 4.96241 1.58705 19.7034 0 0 0 
606 202 2 4.99297 2.86719 18.6593 0 0 0 
607 203 1 4.77403 2.04123 22.2628 0 0 0 
608 203 2 5.13961 1.69885 23.1367 0 0 0 
609 203 2 5.06036 3.0062 22.128 0 0 0 
610 204 1 4.69356 2.06615 26.7678 0 0 0 
611 204 2 5.07139 2.97725 27.0178 0 0 0 
612 204 2 5.32802 1.59075 26.1442 0 0 0 
613 205 1 5.00892 1.85776 30.2816 0 0 0 
614 205 2 4.96531 2.87356 30.3842 0 0 0 
615 205 2 4.90612 1.62241 29.3029 0 0 0 
616 206 1 4.97757 1.86318 33.7028 0 0 0 
617 206 2 4.97657 2.88032 33.8345 0 0 0 
618 206 2 4.96145 1.66315 32.7043 0 0 0 
619 207 1 4.97573 1.88278 37.16 0 0 0 
620 207 2 4.98044 2.90373 37.3009 0 0 0 
621 207 2 4.97238 1.68996 36.1584 0 0 0 
622 208 1 4.97849 1.90189 40.6365 0 0 0 
623 208 2 4.97699 2.92476 40.7792 0 0 0 
624 208 2 4.97548 1.7129 39.6325 0 0 0 
625 209 1 4.98161 1.77285 43.916 0 0 0 
626 209 2 4.95491 2.78157 44.1355 0 0 0 
627 209 2 4.97286 1.66298 42.8965 0 0 0 
628 210 1 4.98036 0.907817 47.1375 0 0 0 
629 210 2 4.94009 1.70205 47.775 0 0 0 
630 210 2 4.9658 1.263 46.1735 0 0 0 
631 211 1 4.61766 4.88138 1.57013 0 0 0 
632 211 2 5.10784 4.80137 2.45603 0 0 0 
633 211 2 5.21575 5.33514 0.902358 0 0 0 
634 212 1 4.96304 4.84613 5.1991 0 0 0 
635 212 2 5.02309 4.75498 6.21295 0 0 0 
636 212 2 4.98655 5.84549 4.95738 0 0 0 
637 213 1 4.97742 4.92716 8.49631 0 0 0 
638 213 2 4.98542 4.82132 9.50882 0 0 0 
639 213 2 5.00199 5.92726 8.27383 0 0 0 
640 214 1 5.00285 4.93882 11.9714 0 0 0 
641 214 2 4.96124 4.8521 12.984 0 0 0 
642 214 2 4.92547 5.92559 11.7263 0 0 0 
643 215 1 4.99898 5.0325 15.4331 0 0 0 
644 215 2 4.96896 4.90073 16.4409 0 0 0 
645 215 2 4.95549 6.03022 15.2304 0 0 0 
646 216 1 4.99101 5.12266 18.8519 0 0 0 
647 216 2 4.95735 4.95507 19.8507 0 0 0 
648 216 2 4.98767 6.12668 18.6826 0 0 0 
649 217 1 4.98602 5.31204 22.3353 0 0 0 
650 217 2 4.97261 5.3054 23.3348 0 0 0 
651 217 2 4.99973 6.27671 22.0137 0 0 0 
652 218 1 5.01665 5.26011 26.8043 0 0 0 
653 218 2 4.99889 6.24079 27.0931 0 0 0 
654 218 2 4.94504 5.21337 25.8132 0 0 0 
655 219 1 4.99021 5.10226 30.166 0 0 0 
656 219 2 4.98836 6.10335 30.3843 0 0 0 
657 219 2 4.97231 4.98682 29.1599 0 0 0 
658 220 1 4.98441 5.03899 33.6206 0 0 0 
659 220 2 4.97745 6.04143 33.8319 0 0 0 
660 220 2 4.97714 4.92019 32.6114 0 0 0 
661 221 1 4.99812 4.96224 37.0882 0 0 0 
662 221 2 4.92726 5.95876 37.3095 0 0 0 
663 221 2 4.97248 4.85526 36.0747 0 0 0 
664 222 1 5.01018 4.91892 40.5519 0 0 0 
665 222 2 4.92158 5.9162 40.7538 0 0 0 
666 222 2 4.96506 4.78979 39.5384 0 0 0 
667 223 1 4.99451 4.81167 43.8926 0 0 0 
668 223 2 4.97539 5.7934 44.1472 0 0 0 
669 223 2 4.99157 4.73616 42.873 0 0 0 
670 224 1 4.74147 4.8545 47.526 0 0 0 
671 224 2 5.12392 5.67592 47.9619 0 0 0 
672 224 2 5.0891 4.78888 46.5806 0 0 0 
673 225 1 4.61481 8.99699 1.25929 0 0 0 
674 225 2 5.21431 9.09454 2.06322 0 0 0 
675 225 2 5.10549 8.51816 0.515662 0 0 0 
676 226 1 4.94292 8.04039 5.04045 0 0 0 
677 226 2 5.06388 8.24992 6.02771 0 0 0 
678 226 2 4.78565 8.89589 4.53847 0 0 0 
679 227 1 5.01766 8.34115 8.65529 0 0 0 
680 227 2 5.01822 8.15901 9.65702 0 0 0 
681 227 2 4.86634 9.32623 8.50457 0 0 0 
682 228 1 4.99195 8.5115 12.02 0 0 0 
683 228 2 4.95369 8.25423 13.0004 0 0 0 
684 228 2 4.99765 9.52139 11.9494 0 0 0 
685 229 1 5.00163 8.5002 15.4775 0 0 0 
686 229 2 4.95913 8.32662 16.474 0 0 0 
687 229 2 4.99978 9.50032 15.3206 0 0 0 
688 230 1 4.98302 8.54268 18.8822 0 0 0 
689 230 2 4.95726 8.45454 19.8825 0 0 0 
690 230 2 4.99759 9.53039 18.6402 0 0 0 
691 231 1 4.98199 8.72795 22.5758 0 0 0 
692 231 2 4.96397 9.1198 23.5017 0 0 0 
693 231 2 4.99112 9.48966 21.9152 0 0 0 
694 232 1 4.99637 8.64617 26.6961 0 0 0 
695 232 2 4.97781 9.60517 27.0729 0 0 0 
696 232 2 4.94516 8.69708 25.7061 0 0 0 
697 233 1 4.98515 8.55077 30.1073 0 0 0 
698 233 2 4.97707 9.54035 30.3807 0 0 0 
699 233 2 4.96727 8.49388 29.1018 0 0 0 
700 234 1 4.96229 8.53223 33.5784 0 0 0 
701 234 2 5.00699 9.5325 33.7932 0 0 0 
702 234 2 4.98366 8.416 32.5735 0 0 0 
703 235 1 4.96325 8.54645 37.0651 0 0 0 
704 235 2 5.03334 9.55613 37.2107 0 0 0 
705 235 2 4.97952 8.36131 36.0659 0 0 0 
706 236 1 4.98461 8.49622 40.5074 0 0 0 
707 236 2 4.98832 9.50842 40.6246 0 0 0 
708 236 2 4.99324 8.28347 39.5099 0 0 0 
709 237 1 5.0256 8.45929 44.0642 0 0 0 
710 237 2 4.89517 9.45919 44.168 0 0 0 
711 237 2 4.9643 8.21874 43.0753 0 0 0 
712 238 1 4.74185 8.66769 47.8378 0 0 0 
713 238 2 5.2392 9.53452 48.0153 0 0 0 
714 238 2 4.91256 8.37104 46.8798 0 0 0 
715 239 1 5.03886 12.349 1.85821 0 0 0 
716 239 2 4.98809 13.3673 1.86079 0 0 0 
717 239 2 4.97424 11.9919 0.892252 0 0 0 
718 240 1 4.97603 12.2125 5.4637 0 0 0 
719 240 2 5.06136 13.2219 5.50828 0 0 0 
720 240 2 4.87887 11.9249 4.48879 0 0 0 
721 241 1 4.91986 12.0779 8.94055 0 0 0 
722 241 2 5.08463 13.0691 9.05741 0 0 0 
723 241 2 4.89618 11.8598 7.94054 0 0 0 
724 242 1 4.97221 12.0107 12.4534 0 0 0 
725 242 2 4.98924 13.0138 12.5974 0 0 0 
726 242 2 4.91413 11.8222 11.4474 0 0 0 
727 243 1 4.98764 12.0297 15.9818 0 0 0 
728 243 2 4.95802 13.0361 16.1286 0 0 0 
729 243 2 4.96051 11.8424 14.9737 0 0 0 
730 244 1 4.98472 12.0201 19.4591 0 0 0 
731 244 2 4.96813 13.0143 19.6928 0 0 0 
732 244 2 4.98105 11.9217 18.4407 0 0 0 
733 245 1 4.99273 12.0378 22.9751 0 0 0 
734 245 2 4.97403 13.0114 23.2958 0 0 0 
735 245 2 4.97024 12.0275 21.9618 0 0 0 
736 246 1 5.00072 11.9977 26.5124 0 0 0 
737 246 2 4.9934 12.9754 26.8448 0 0 0 
738 246 2 4.95396 12.0006 25.5029 0 0 0 
739 247 1 4.9718 11.9975 30.026 0 0 0 
740 247 2 5.02002 12.9972 30.2891 0 0 0 
741 247 2 4.95812 11.932 29.0146 0 0 0 
742 248 1 4.94409 11.9663 33.5456 0 0 0 
743 248 2 4.99926 12.9744 33.7185 0 0 0 
744 248 2 4.97903 11.8056 32.5373 0 0 0 