ITEM: TIMESTEP
65250
ITEM: NUMBER OF ATOMS
44200
ITEM: BOX BOUNDS pp pp pp
14.7482 248.252
2.80383 47.1962
2.80383 47.1962
ITEM: ATOMS id mol type x y z ix iy iz 
1 1 1 20.1152 16.5625 8.4175 0 0 0 
2 1 2 20.1345 16.5641 7.41769 0 0 0 
3 1 2 19.975 15.6287 8.7467 0 0 0 
4 2 1 246.587 18.5907 9.6861 -1 -1 0 
5 2 2 245.819 18.2363 9.15175 -1 -1 0 
6 2 2 247.442 18.2151 9.3301 -1 -1 0 
7 3 1 36.8002 36.1106 42.8229 0 -1 -1 
8 3 2 35.8041 36.0998 42.9107 0 -1 -1 
9 3 2 37.059 36.6634 42.0308 0 -1 -1 
10 4 1 235.201 27.018 38.3894 -1 0 0 
11 4 2 234.689 26.3763 37.8186 -1 0 0 
12 4 2 235.869 27.505 37.8267 -1 0 0 
13 5 1 234.933 36.2021 15.2194 -1 0 0 
14 5 2 235.716 36.7938 15.0262 -1 0 0 
15 5 2 235.183 35.2503 15.0413 -1 0 0 
16 6 1 28.1383 45.465 29.3629 0 -1 0 
17 6 2 28.8098 45.5286 28.6247 0 -1 0 
18 6 2 28.6081 45.2781 30.2257 0 -1 0 
19 7 1 244.623 42.6106 15.2109 -1 0 0 
20 7 2 244.596 43.3657 15.866 -1 0 0 
21 7 2 245.364 42.7629 14.5572 -1 0 0 
22 8 1 22.5549 25.0604 16.2869 0 0 0 
23 8 2 23.214 24.3295 16.1098 0 0 0 
24 8 2 21.7172 24.6687 16.6675 0 0 0 
25 9 1 15.1885 47.1271 16.1872 0 -1 0 
26 9 2 248.091 3.49736 16.4249 -1 0 0 
27 9 2 15.1916 46.4601 16.9323 0 -1 0 
28 10 1 28.3371 9.99401 30.0791 0 0 0 
29 10 2 28.5638 10.826 30.5854 0 0 0 
30 10 2 27.4067 9.70767 30.3079 0 0 0 
31 11 1 229.803 35.1138 30.3052 -1 -1 0 
32 11 2 228.993 35.7005 30.3328 -1 -1 0 
33 11 2 230.559 35.6085 29.8763 -1 -1 0 
34 12 1 17.412 25.5359 37.6663 0 0 0 
35 12 2 16.5954 25.5611 38.2429 0 0 0 
36 12 2 17.6746 24.5852 37.5017 0 0 0 
37 13 1 243.396 21.3834 10.7402 -1 0 1 
38 13 2 243.684 20.4905 11.0866 -1 0 1 
39 13 2 243.872 21.5769 9.88184 -1 0 1 
40 14 1 21.612 24.579 40.9446 0 0 0 
41 14 2 20.7026 24.5857 40.5287 0 0 0 
42 14 2 21.6841 25.3304 41.6005 0 0 0 
43 15 1 18.7182 31.5461 40.6084 0 -1 -1 
44 15 2 18.349 30.9194 41.2946 0 -1 -1 
45 15 2 18.8427 31.0585 39.7443 0 -1 -1 
46 16 1 29.1159 6.81964 14.7265 0 0 0 
47 16 2 28.6556 6.83513 13.8388 0 0 0 
48 16 2 29.9052 6.20732 14.682 0 0 0 
49 17 1 34.2696 36.4122 7.06783 0 -1 0 
50 17 2 33.9443 35.5396 7.43236 0 -1 0 
51 17 2 34.8286 36.8736 7.75672 0 -1 0 
52 18 1 25.1955 19.2405 31.7883 0 0 0 
53 18 2 24.9572 19.0064 30.8457 0 0 0 
54 18 2 24.3995 19.6388 32.2442 0 0 0 
55 19 1 246.697 12.5882 3.25914 -1 0 0 
56 19 2 246.134 12.2208 3.99946 -1 0 0 
57 19 2 247.04 11.8361 47.0885 -1 0 -1 
58 20 1 16.0625 30.9924 23.1107 0 0 0 
59 20 2 15.4663 31.633 23.5946 0 0 0 
60 20 2 15.5533 30.5606 22.3662 0 0 0 
61 21 1 240.268 31.2866 12.3251 -1 0 0 
62 21 2 240.349 31.8694 11.5164 -1 0 0 
63 21 2 240.494 30.3438 12.0803 -1 0 0 
64 22 1 245.002 20.1493 3.72568 -1 0 0 
65 22 2 245.302 20.8557 3.08486 -1 0 0 
66 22 2 244.059 20.3321 4.00489 -1 0 0 
67 23 1 19.0749 12.9636 32.1918 0 0 0 
68 23 2 18.5161 12.6626 31.4191 0 0 0 
69 23 2 19.9943 13.19 31.87 0 0 0 
70 24 1 17.2526 10.244 34.5552 0 0 0 
71 24 2 17.5658 9.81161 35.4008 0 0 0 
72 24 2 16.7393 11.0735 34.7754 0 0 0 
73 25 1 25.5837 5.29991 42.8452 0 0 0 
74 25 2 24.7392 5.00849 42.3959 0 0 0 
75 25 2 26.188 4.51179 42.9625 0 0 0 
76 26 1 241.31 16.4348 37.0752 -1 0 0 
77 26 2 242.285 16.3002 36.8958 -1 0 0 
78 26 2 240.955 17.1467 36.4693 -1 0 0 
79 27 1 243.797 6.73956 44.6418 -1 0 0 
80 27 2 243.39 5.84524 44.8265 -1 0 0 
81 27 2 244.763 6.62421 44.4099 -1 0 0 
82 28 1 246.304 16.5018 30.9947 -1 0 0 
83 28 2 246.604 16.5179 30.0411 -1 0 0 
84 28 2 245.766 17.3225 31.1887 -1 0 0 
85 29 1 37.0597 46.5008 6.39118 0 -1 0 
86 29 2 36.9978 45.9672 5.54771 0 -1 0 
87 29 2 38.0214 46.6505 6.62102 0 -1 0 
88 30 1 242.824 9.23263 4.9232 -1 0 0 
89 30 2 243.455 8.65589 4.40443 -1 0 0 
90 30 2 242.239 9.73964 4.29028 -1 0 0 
91 31 1 21.3735 4.71022 20.4725 0 0 0 
92 31 2 20.9912 3.83958 20.1629 0 0 0 
93 31 2 20.6313 5.32094 20.7483 0 0 0 
94 32 1 15.8069 35.7219 24.1548 0 0 0 
95 32 2 15.684 35.9363 25.1238 0 0 0 
96 32 2 15.0503 36.1104 23.6289 0 0 0 
97 33 1 233.514 18.6796 25.5815 -1 0 0 
98 33 2 232.632 19.1328 25.4532 -1 0 0 
99 33 2 233.923 18.4873 24.6895 -1 0 0 
100 34 1 206.433 30.295 10.2384 -1 0 0 
101 34 2 205.773 29.7539 10.7594 -1 0 0 
102 34 2 207.125 29.6888 9.8455 -1 0 0 
103 35 1 244.08 4.10386 39.878 -1 0 -1 
104 35 2 244.23 4.88206 39.2681 -1 0 -1 
105 35 2 244.629 4.21898 40.7061 -1 0 -1 
106 36 1 29.5363 23.21 26.7864 0 0 0 
107 36 2 29.1385 24.0987 27.0145 0 0 0 
108 36 2 29.9105 23.2404 25.8595 0 0 0 
109 37 1 224.594 16.1987 38.6152 -1 0 0 
110 37 2 223.738 16.6842 38.4368 -1 0 0 
111 37 2 225.217 16.3268 37.8434 -1 0 0 
112 38 1 19.388 22.1504 35.2216 0 0 0 
113 38 2 19.6036 21.509 34.4852 0 0 0 
114 38 2 19.7305 23.0592 34.983 0 0 0 
115 39 1 244.56 6.08352 37.8185 -1 0 0 
116 39 2 245.519 6.29513 37.626 -1 0 0 
117 39 2 244.175 5.56187 37.0574 -1 0 0 
118 40 1 29.8154 14.1612 10.9815 0 0 1 
119 40 2 30.067 14.1731 10.0137 0 0 1 
120 40 2 28.8298 14.0152 11.0678 0 0 1 
121 41 1 240.671 8.74431 30.8286 -1 0 0 
122 41 2 241.357 8.51251 30.1393 -1 0 0 
123 41 2 239.781 8.86294 30.3867 -1 0 0 
124 42 1 45.3045 17.7142 31.9296 0 0 0 
125 42 2 45.6769 16.8337 31.6364 0 0 0 
126 42 2 45.0132 18.2365 31.128 0 0 0 
127 43 1 243.087 17.7386 44.9567 -1 0 -1 
128 43 2 242.196 17.8073 44.5095 -1 0 -1 
129 43 2 242.972 17.8267 45.9461 -1 0 -1 
130 44 1 37.7364 40.7359 40.542 0 -1 -1 
131 44 2 38.1038 41.56 40.1108 0 -1 -1 
132 44 2 36.7954 40.9044 40.8353 0 -1 -1 
133 45 1 242.503 29.4054 12.6201 -1 0 0 
134 45 2 242.907 30.3056 12.7836 -1 0 0 
135 45 2 243.081 28.7011 13.033 -1 0 0 
136 46 1 242.336 18.434 3.11231 -1 0 0 
137 46 2 241.452 17.9694 3.07881 -1 0 0 
138 46 2 242.339 19.0924 3.86497 -1 0 0 
139 47 1 217.408 23.8252 15.4653 -1 0 0 
140 47 2 218.265 23.8226 15.9808 -1 0 0 
141 47 2 216.652 24.0552 16.0774 -1 0 0 
142 48 1 244.075 17.2137 28.0796 -1 0 0 
143 48 2 244.154 17.9961 28.6973 -1 0 0 
144 48 2 244.273 17.5061 27.144 -1 0 0 
145 49 1 19.7654 15.1311 27.3423 0 0 0 
146 49 2 20.6257 15.1186 26.8328 0 0 0 
147 49 2 19.9094 15.5705 28.229 0 0 0 
148 50 1 23.2624 27.6854 28.3703 0 0 0 
149 50 2 22.9812 26.9089 28.9343 0 0 0 
150 50 2 24.1809 27.5209 28.0109 0 0 0 
151 51 1 28.5163 32.4027 20.9426 0 0 0 
152 51 2 29.4441 32.4101 20.5696 0 0 0 
153 51 2 28.3868 31.5809 21.4975 0 0 0 
154 52 1 31.6271 28.8154 29.8901 0 0 0 
155 52 2 32.2098 28.011 30.0055 0 0 0 
156 52 2 31.7433 29.1815 28.9668 0 0 0 
157 53 1 20.803 23.675 21.5856 0 0 0 
158 53 2 21.6841 23.2262 21.4366 0 0 0 
159 53 2 20.6773 23.8467 22.5627 0 0 0 
160 54 1 35.4445 15.6967 32.9508 0 0 0 
161 54 2 36.2133 15.3015 32.448 0 0 0 
162 54 2 35.2732 16.6254 32.6219 0 0 0 
163 55 1 244.616 24.8195 22.8718 -1 0 1 
164 55 2 244.83 23.8792 23.1361 -1 0 1 
165 55 2 244.538 24.8764 21.8765 -1 0 1 
166 56 1 246.64 14.6969 7.10244 -1 0 1 
167 56 2 246.769 14.806 8.08795 -1 0 1 
168 56 2 247.302 15.2643 6.61402 -1 0 1 
169 57 1 32.249 14.3987 4.91577 0 0 0 
170 57 2 31.8673 15.1888 4.43622 0 0 0 
171 57 2 32.7098 14.705 5.74872 0 0 0 
172 58 1 21.7456 27.7907 36.3268 0 0 -1 
173 58 2 21.1242 28.2413 35.6858 0 0 -1 
174 58 2 21.2658 27.6108 37.1855 0 0 -1 
175 59 1 241.001 25.9159 19.2907 -1 0 0 
176 59 2 241.791 26.527 19.2461 -1 0 0 
177 59 2 240.622 25.7937 18.3735 -1 0 0 
178 60 1 234.837 25.0041 28.8078 -1 0 0 
179 60 2 235.629 25.2465 29.3686 -1 0 0 
180 60 2 234.874 24.0306 28.5821 -1 0 0 
181 61 1 15.101 26.1381 44.6149 0 0 -1 
182 61 2 247.892 25.7435 44.0347 -1 0 -1 
183 61 2 15.7267 25.4167 44.9117 0 0 -1 
184 62 1 234.262 29.2754 30.6679 -1 0 0 
185 62 2 235.057 28.8033 31.048 -1 0 0 
186 62 2 234.523 30.2007 30.3932 -1 0 0 
187 63 1 24.7583 37.1143 38.2011 0 0 0 
188 63 2 24.7995 36.4517 37.4534 0 0 0 
189 63 2 24.5868 38.0266 37.829 0 0 0 
190 64 1 22.8384 17.3007 32.4621 0 0 0 
191 64 2 23.3803 17.7697 33.1595 0 0 0 
192 64 2 22.555 17.957 31.7629 0 0 0 
193 65 1 44.8026 34.0322 43.5519 0 0 0 
194 65 2 44.2638 33.2388 43.8351 0 0 0 
195 65 2 44.9684 33.9881 42.5667 0 0 0 
196 66 1 244.362 27.4783 13.7107 -1 0 0 
197 66 2 245.213 27.7021 14.1847 -1 0 0 
198 66 2 243.958 26.6598 14.1194 -1 0 0 
199 67 1 29.2356 25.4889 31.9577 0 0 0 
200 67 2 28.6116 25.4957 32.7391 0 0 0 
201 67 2 29.3672 26.4239 31.6282 0 0 0 
202 68 1 25.1341 23.9969 42.5378 0 0 0 
203 68 2 24.6689 23.926 41.6554 0 0 0 
204 68 2 25.1246 24.9488 42.844 0 0 0 
205 69 1 22.5252 33.5964 30.9204 0 0 0 
206 69 2 22.1795 33.7874 30.0017 0 0 0 
207 69 2 21.815 33.8031 31.5935 0 0 0 
208 70 1 15.1983 15.0465 39.8073 0 0 0 
209 70 2 247.744 14.9138 40.0605 -1 0 0 
210 70 2 15.3306 15.9828 39.482 0 0 0 
211 71 1 208.3 15.3958 43.3588 -1 0 -1 
212 71 2 208.74 15.1809 42.4866 -1 0 -1 
213 71 2 208.52 16.3358 43.6199 -1 0 -1 
214 72 1 240.743 22.1064 8.23344 -1 0 0 
215 72 2 239.935 22.268 8.79981 -1 0 0 
216 72 2 240.835 21.1265 8.05688 -1 0 0 
217 73 1 236.286 13.8341 24.3986 -1 0 0 
218 73 2 236.647 13.9414 25.3249 -1 0 0 
219 73 2 236.854 13.1859 23.8921 -1 0 0 
220 74 1 236.675 22.1217 41.8412 -1 0 -1 
221 74 2 236.897 22.5981 42.6919 -1 0 -1 
222 74 2 236.129 21.3096 42.0468 -1 0 -1 
223 75 1 18.3775 42.3131 44.132 0 0 -1 
224 75 2 17.5519 42.4323 44.6836 0 0 -1 
225 75 2 18.3703 41.4051 43.7131 0 0 -1 
226 76 1 18.404 45.4495 25.1064 0 -1 0 
227 76 2 18.731 45.2927 24.1744 0 -1 0 
228 76 2 17.4496 45.1595 25.1779 0 -1 0 
229 77 1 243.504 32.6296 36.6349 -1 0 0 
230 77 2 244.309 33.2199 36.7028 -1 0 0 
231 77 2 242.773 32.9944 37.2119 -1 0 0 
232 78 1 239.548 27.2893 43.3991 -1 0 -1 
233 78 2 239.234 27.2943 42.4498 -1 0 -1 
234 78 2 239.785 28.2204 43.6767 -1 0 -1 
235 79 1 247.657 23.3297 13.5963 -1 0 0 
236 79 2 14.949 22.8783 13.1922 0 0 0 
237 79 2 247.061 23.6686 12.8685 -1 0 0 
238 80 1 21.6285 13.6338 31.5565 0 0 0 
239 80 2 22.3603 14.3075 31.6592 0 0 0 
240 80 2 22.0183 12.76 31.2655 0 0 0 
241 81 1 244.224 25.2941 26.905 -1 0 1 
242 81 2 243.915 25.7764 26.0853 -1 0 1 
243 81 2 243.75 25.6601 27.7058 -1 0 1 
244 82 1 241.652 28.3778 7.54643 -1 0 1 
245 82 2 242.231 28.0966 8.31175 -1 0 1 
246 82 2 242.187 28.3641 6.70143 -1 0 1 
247 83 1 16.7474 13.8835 41.8537 0 0 0 
248 83 2 17.3467 14.5132 42.3481 0 0 0 
249 83 2 16.434 14.3161 41.0084 0 0 0 
250 84 1 230.404 36.6441 10.0195 -1 0 1 
251 84 2 231.32 36.676 10.4181 -1 0 1 
252 84 2 230.05 35.7102 10.0718 -1 0 1 
253 85 1 231.842 22.5163 27.2123 -1 0 0 
254 85 2 232.341 22.6552 26.3571 -1 0 0 
255 85 2 232.273 21.78 27.734 -1 0 0 
256 86 1 20.5578 15.8985 30.0097 0 0 0 
257 86 2 19.9493 16.3593 30.6558 0 0 0 
258 86 2 21.1403 15.2526 30.5031 0 0 0 
259 87 1 14.9122 16.0556 25.2862 0 0 0 
260 87 2 14.884 17.0542 25.3302 0 0 0 
261 87 2 15.8223 15.7359 25.55 0 0 0 
262 88 1 50.1917 27.5308 23.1771 0 0 0 
263 88 2 49.3085 27.8035 23.5586 0 0 0 
264 88 2 50.2049 26.54 23.0421 0 0 0 
265 89 1 19.5971 27.4302 10.4297 0 0 0 
266 89 2 19.4002 27.5354 9.45493 0 0 0 
267 89 2 20.5824 27.3208 10.5608 0 0 0 
268 90 1 223.904 19.7806 16.9636 -1 0 0 
269 90 2 223.783 20.6391 16.4653 -1 0 0 
270 90 2 223.116 19.1866 16.8006 -1 0 0 
271 91 1 18.4759 30.179 23.3613 0 0 0 
272 91 2 18.5622 29.1848 23.2972 0 0 0 
273 91 2 17.5168 30.4383 23.2477 0 0 0 
274 92 1 20.0242 24.5591 17.3436 0 0 0 
275 92 2 20.674 24.6779 18.0944 0 0 0 
276 92 2 19.1047 24.7949 17.6582 0 0 0 
277 93 1 26.528 26.3898 24.2541 0 0 0 
278 93 2 26.3467 27.3543 24.0619 0 0 0 
279 93 2 27.5004 26.2664 24.4519 0 0 0 
280 94 1 245.27 30.9443 35.1047 -1 0 0 
281 94 2 246.022 31.5991 35.0293 -1 0 0 
282 94 2 244.481 31.3899 35.5286 -1 0 0 
283 95 1 18.1782 30.8361 35.5658 0 0 0 
284 95 2 17.2493 30.6981 35.222 0 0 0 
285 95 2 18.2069 31.6647 36.125 0 0 0 
286 96 1 243.639 30.9028 5.81924 -1 0 1 
287 96 2 243.808 31.5023 6.60175 -1 0 1 
288 96 2 243.593 31.4504 4.98376 -1 0 1 
289 97 1 17.884 31.982 30.149 0 0 0 
290 97 2 17.322 31.7457 29.3563 0 0 0 
291 97 2 18.8228 32.1562 29.8519 0 0 0 
292 98 1 15.4845 30.7961 35.2871 0 0 0 
293 98 2 15.1967 29.9157 34.9101 0 0 0 
294 98 2 15.4647 30.7534 36.286 0 0 0 
295 99 1 30.2532 29.6379 39.7513 0 0 -1 
296 99 2 30.1857 29.7332 38.7582 0 0 -1 
297 99 2 29.6581 28.8942 40.056 0 0 -1 
298 100 1 21.3753 29.1911 4.766 0 0 0 
299 100 2 21.7339 29.8671 4.12209 0 0 0 
300 100 2 21.7559 28.2916 4.5513 0 0 0 
301 101 1 23.0775 17.6499 21.6515 0 0 0 
302 101 2 22.323 17.1021 21.2901 0 0 0 
303 101 2 22.7114 18.3936 22.2109 0 0 0 
304 102 1 246.19 21.0307 11.2307 -1 0 0 
305 102 2 246.315 20.3006 10.5589 -1 0 0 
306 102 2 245.912 21.8696 10.7632 -1 0 0 
307 103 1 24.5706 25.2454 20.0587 0 0 0 
308 103 2 24.7658 26.194 19.8094 0 0 0 
309 103 2 25.2507 24.9278 20.7194 0 0 0 
310 104 1 32.4583 25.7538 29.0625 0 0 0 
311 104 2 32.4084 25.0948 29.813 0 0 0 
312 104 2 33.3083 26.2759 29.1334 0 0 0 
313 105 1 20.5296 33.9897 10.6364 0 0 0 
314 105 2 20.7358 33.2115 10.0433 0 0 0 
315 105 2 20.7761 33.7649 11.5791 0 0 0 
316 106 1 23.8267 40.1665 25.5749 0 0 0 
317 106 2 24.4167 40.883 25.2026 0 0 0 
318 106 2 23.5065 39.5789 24.8317 0 0 0 
319 107 1 30.3125 26.3115 17.7285 0 0 0 
320 107 2 30.8198 26.1064 16.8915 0 0 0 
321 107 2 29.8847 25.4756 18.0723 0 0 0 
322 108 1 244.734 18.4879 31.9346 -1 0 0 
323 108 2 244.089 18.3183 32.6791 -1 0 0 
324 108 2 244.597 19.412 31.578 -1 0 0 
325 109 1 245.469 25.6925 33.5171 -1 0 0 
326 109 2 246.08 26.1525 32.8728 -1 0 0 
327 109 2 244.837 25.103 33.0143 -1 0 0 
328 110 1 234.263 30.4642 44.3465 -1 0 0 
329 110 2 233.431 30.5423 44.8957 -1 0 0 
330 110 2 235.012 30.1347 44.9212 -1 0 0 
331 111 1 242.837 24.8079 41.2897 -1 0 0 
332 111 2 243.8 25.0135 41.4638 -1 0 0 
333 111 2 242.411 25.5802 40.818 -1 0 0 
334 112 1 25.213 35.3939 36.0971 0 0 0 
335 112 2 24.3159 35.1958 35.7022 0 0 0 
336 112 2 25.8535 35.6316 35.3668 0 0 0 
337 113 1 241.062 26.5714 39.9931 -1 0 -1 
338 113 2 241.44 27.0403 39.1947 -1 0 -1 
339 113 2 240.223 27.0325 40.2844 -1 0 -1 
340 114 1 20.6812 20.8504 11.042 0 0 0 
341 114 2 21.1295 21.3994 10.3366 0 0 0 
342 114 2 20.1739 20.104 10.6112 0 0 0 
343 115 1 19.8088 22.4704 13.1138 0 0 0 
344 115 2 20.0205 21.8653 12.3463 0 0 0 
345 115 2 20.3622 23.3005 13.0462 0 0 0 
346 116 1 20.7846 36.2684 41.9941 0 0 -1 
347 116 2 20.9867 35.7076 41.1913 0 0 -1 
348 116 2 19.8311 36.568 41.96 0 0 -1 
349 117 1 246.939 35.3341 43.5122 -1 0 0 
350 117 2 246.301 34.861 42.9051 -1 0 0 
351 117 2 246.615 35.2652 44.4557 -1 0 0 
352 118 1 245.162 17.8579 25.5576 -1 0 0 
353 118 2 246.039 17.8899 26.0366 -1 0 0 
354 118 2 245.302 17.5185 24.6275 -1 0 0 
355 119 1 15.3951 30.5391 12.5477 0 0 0 
356 119 2 15.997 29.7554 12.7015 0 0 0 
357 119 2 15.6267 31.2686 13.1913 0 0 0 
358 120 1 243.437 38.3041 20.7412 -1 0 0 
359 120 2 242.577 38.5915 21.1633 -1 0 0 
360 120 2 243.292 38.1457 19.7645 -1 0 0 
361 121 1 39.7194 31.7003 35.2101 0 0 0 
362 121 2 40.5438 32.1503 35.5534 0 0 0 
363 121 2 38.9264 32.2867 35.3752 0 0 0 
364 122 1 238.912 33.8657 20.8461 -1 0 0 
365 122 2 239.833 34.0973 20.5318 -1 0 0 
366 122 2 238.283 33.8721 20.0687 -1 0 0 
367 123 1 17.3514 40.8806 38.0305 0 0 0 
368 123 2 17.216 41.4927 38.8095 0 0 0 
369 123 2 18.3288 40.7084 37.9078 0 0 0 
370 124 1 17.613 27.9911 19.5545 0 0 0 
371 124 2 17.6546 28.8585 20.0505 0 0 0 
372 124 2 16.7105 27.8895 19.136 0 0 0 
373 125 1 244.327 16.62 36.0477 -1 0 0 
374 125 2 244.662 17.3804 36.6041 -1 0 0 
375 125 2 244.472 15.7599 36.5369 -1 0 0 
376 126 1 20.1879 10.6464 33.8553 0 1 0 
377 126 2 20.8009 11.0073 34.5582 0 1 0 
378 126 2 19.2537 10.6175 34.2108 0 1 0 
379 127 1 30.1905 41.0939 34.4809 0 0 -1 
380 127 2 29.454 41.0946 33.8044 0 0 -1 
381 127 2 30.4454 40.1509 34.695 0 0 -1 
382 128 1 246.068 34.5979 12.5384 -1 0 0 
383 128 2 245.465 34.8336 13.3002 -1 0 0 
384 128 2 245.813 33.7019 12.1755 -1 0 0 
385 129 1 31.4132 34.2896 38.652 0 0 -1 
386 129 2 32.1343 34.6653 38.0699 0 0 -1 
387 129 2 31.1742 34.9557 39.3585 0 0 -1 
388 130 1 241.666 6.54888 18.1891 -1 1 0 
389 130 2 241.862 5.62901 18.5288 -1 1 0 
390 130 2 242.453 7.14162 18.3585 -1 1 0 
391 131 1 25.6103 27.3694 7.91798 0 0 0 
392 131 2 26.4437 27.92 7.8715 0 0 0 
393 131 2 24.8124 27.9627 7.81141 0 0 0 
394 132 1 22.7701 34.7373 7.14349 0 0 0 
395 132 2 23.5815 34.4133 7.62989 0 0 0 
396 132 2 22.5152 35.6417 7.48578 0 0 0 
397 133 1 18.2895 28.5075 15.7984 0 0 0 
398 133 2 17.9359 29.439 15.8844 0 0 0 
399 133 2 19.2885 28.5251 15.84 0 0 0 
400 134 1 27.0212 33.0962 14.7968 0 0 0 
401 134 2 26.665 33.8891 15.2912 0 0 0 
402 134 2 26.6173 33.0646 13.8825 0 0 0 
403 135 1 25.8442 40.0952 42.336 0 0 0 
404 135 2 25.2779 39.7115 43.0654 0 0 0 
405 135 2 26.06 39.3805 41.6706 0 0 0 
406 136 1 242.519 20.6909 33.4723 -1 0 0 
407 136 2 242.781 19.7743 33.7745 -1 0 0 
408 136 2 242.84 21.3655 34.1369 -1 0 0 
409 137 1 242.567 44.992 42.6504 -1 0 0 
410 137 2 242.314 44.0557 42.4071 -1 0 0 
411 137 2 243.339 45.2856 42.0869 -1 0 0 
412 138 1 230.908 45.1591 6.40231 -1 0 1 
413 138 2 231.512 45.3816 5.63712 -1 0 1 
414 138 2 230.322 44.3881 6.15147 -1 0 1 
415 139 1 32.1652 18.8849 15.3988 0 0 1 
416 139 2 32.2563 18.0013 15.8582 0 0 1 
417 139 2 33.0732 19.2694 15.2326 0 0 1 
418 140 1 20.5381 39.8478 45.0178 0 0 0 
419 140 2 19.7631 39.5302 44.4713 0 0 0 
420 140 2 20.2194 40.1057 45.9299 0 0 0 
421 141 1 243.546 30.2517 42.709 -1 0 -1 
422 141 2 243.019 30.7234 42.0018 -1 0 -1 
423 141 2 244.475 30.621 42.7348 -1 0 -1 
424 142 1 246.858 33.4607 28.3468 -1 0 0 
425 142 2 246.184 33.3283 29.0743 -1 0 0 
426 142 2 246.706 34.3469 27.9092 -1 0 0 
427 143 1 19.614 4.49106 42.1238 0 1 -1 
428 143 2 20.1134 4.74337 41.295 0 1 -1 
429 143 2 19.0898 5.27788 42.4497 0 1 -1 
430 144 1 244.705 29.4503 32.9755 -1 0 -1 
431 144 2 244.712 29.5883 33.9659 -1 0 -1 
432 144 2 244.775 30.3353 32.5152 -1 0 -1 
433 145 1 34.0931 27.0744 10.3891 0 0 0 
434 145 2 33.5633 26.2302 10.4708 0 0 0 
435 145 2 33.6153 27.8148 10.8619 0 0 0 
436 146 1 243.063 38.019 15.465 -1 0 0 
437 146 2 242.642 38.9205 15.5668 -1 0 0 
438 146 2 242.43 37.3171 15.791 -1 0 0 
439 147 1 25.5777 43.3551 40.8464 0 0 0 
440 147 2 26.3711 43.4857 40.2519 0 0 0 
441 147 2 25.2628 42.4084 40.7788 0 0 0 
442 148 1 241.602 45.0831 20.0248 -1 0 0 
443 148 2 242.021 44.3256 20.5251 -1 0 0 
444 148 2 241.851 45.9484 20.4598 -1 0 0 
445 149 1 245.111 9.67556 15.1627 -1 1 0 
446 149 2 244.681 10.5744 15.2449 -1 1 0 
447 149 2 245.299 9.48271 14.1996 -1 1 0 
448 150 1 17.315 17.8343 23.0878 0 1 0 
449 150 2 16.9214 18.367 23.837 0 1 0 
450 150 2 16.7745 17.9757 22.2584 0 1 0 
451 151 1 18.1693 8.19582 26.7333 0 1 0 
452 151 2 17.4612 8.22144 27.439 0 1 0 
453 151 2 18.6226 7.30459 26.7482 0 1 0 
454 152 1 241.989 31.7954 41.1178 -1 0 0 
455 152 2 242.157 32.7689 41.2731 -1 0 0 
456 152 2 241.542 31.6713 40.2316 -1 0 0 
457 153 1 30.6606 7.29411 43.1287 0 1 0 
458 153 2 30.5094 6.3113 43.2347 0 1 0 
459 153 2 30.292 7.5951 42.2492 0 1 0 
460 154 1 236.971 41.9119 26.4892 -1 0 0 
461 154 2 236.666 42.8635 26.5241 -1 0 0 
462 154 2 236.753 41.4599 27.3542 -1 0 0 
463 155 1 25.8066 45.2956 46.9607 0 0 -1 
464 155 2 26.1911 46.034 46.4066 0 0 -1 
465 155 2 25.8609 44.4354 46.4536 0 0 -1 
466 156 1 22.1195 26.748 9.13499 0 0 0 
467 156 2 22.8817 27.1486 9.64345 0 0 0 
468 156 2 22.2176 25.753 9.11618 0 0 0 
469 157 1 15.5411 15.2599 12.1572 0 1 0 
470 157 2 15.9368 14.9055 13.0045 0 1 0 
471 157 2 248.051 15.3181 12.2523 -1 1 0 
472 158 1 242.713 28.6479 45.2166 -1 0 -1 
473 158 2 242.122 28.9477 44.4677 -1 0 -1 
474 158 2 242.324 28.9468 46.0881 -1 0 -1 
475 159 1 246.007 34.5746 17.1322 -1 0 0 
476 159 2 245.764 35.5143 17.3727 -1 0 0 
477 159 2 245.279 34.1745 16.5745 -1 0 0 
478 160 1 27.4057 42.0149 46.2621 0 0 -1 
479 160 2 26.6807 42.5663 45.8494 0 0 -1 
480 160 2 26.9981 41.2908 46.8184 0 0 -1 
481 161 1 34.3362 26.9948 34.9567 0 0 0 
482 161 2 33.5141 27.2242 35.4779 0 0 0 
483 161 2 34.0756 26.6873 34.0415 0 0 0 
484 162 1 242.545 10.6828 41.5832 -1 1 0 
485 162 2 243.52 10.8227 41.4115 -1 1 0 
486 162 2 242.035 10.8098 40.7323 -1 1 0 
487 163 1 246.772 34.9013 31.1416 -1 0 0 
488 163 2 247.625 34.381 31.0973 -1 0 0 
489 163 2 246.98 35.873 31.2543 -1 0 0 
490 164 1 233.241 46.9173 35.5694 -1 0 0 
491 164 2 232.678 3.35125 35.5412 -1 1 0 
492 164 2 234.197 47.17 35.7153 -1 0 0 
493 165 1 231.217 27.0238 42.1394 -1 0 0 
494 165 2 230.64 27.753 41.7721 -1 0 0 
495 165 2 232.157 27.3541 42.2251 -1 0 0 
496 166 1 246.386 14.2007 32.5345 -1 1 0 
497 166 2 247.259 13.7236 32.6299 -1 1 0 
498 166 2 246.493 14.971 31.906 -1 1 0 
499 167 1 20.7995 24.8885 37.0851 0 0 0 
500 167 2 20.6843 25.5976 37.7808 0 0 0 
501 167 2 20.3958 25.1977 36.224 0 0 0 
502 168 1 35.3741 3.41581 36.0044 0 1 0 
503 168 2 36.0374 3.9333 35.4639 0 1 0 
504 168 2 35.8203 47.0054 36.4001 0 0 0 
505 169 1 247.853 7.63719 42.3028 -1 1 -1 
506 169 2 14.9485 7.69467 41.5043 0 1 -1 
507 169 2 247.851 8.51476 42.7822 -1 1 -1 
508 170 1 40.4182 13.7038 32.4921 0 1 -1 
509 170 2 40.9607 14.4992 32.7622 0 1 -1 
510 170 2 41.0014 12.8915 32.4791 0 1 -1 
511 171 1 33.0155 45.6995 37.5007 0 0 -1 
512 171 2 32.9724 45.702 36.5016 0 0 -1 
513 171 2 32.0967 45.8277 37.8742 0 0 -1 
514 172 1 247.095 25.1652 20.5325 -1 0 0 
515 172 2 246.153 25.4005 20.7711 -1 0 0 
516 172 2 247.352 25.6341 19.6874 -1 0 0 
517 173 1 24.0306 14.1751 17.0437 0 1 0 
518 173 2 23.5561 15.0513 17.1275 0 1 0 
519 173 2 24.9152 14.2294 17.5067 0 1 0 
520 174 1 241.132 19.4466 36.8946 -1 0 0 
521 174 2 241.792 18.8653 37.3707 -1 0 0 
522 174 2 241.064 20.3273 37.3635 -1 0 0 
523 175 1 16.6774 46.4383 5.2064 0 0 0 
524 175 2 16.9344 3.00139 5.06084 0 1 0 
525 175 2 16.7959 45.9278 4.35472 0 0 0 
526 176 1 244.876 8.9402 12.3956 -1 1 0 
527 176 2 244.291 8.15705 12.184 -1 1 0 
528 176 2 245.663 8.94506 11.7784 -1 1 0 
529 177 1 240.352 10.7511 7.26872 -1 1 1 
530 177 2 239.354 10.7092 7.30577 -1 1 1 
531 177 2 240.635 11.6254 6.87391 -1 1 1 
532 178 1 236.34 34.8268 27.154 -1 0 0 
533 178 2 236.479 34.5245 28.097 -1 0 0 
534 178 2 235.418 34.5766 26.8569 -1 0 0 
535 179 1 16.3804 36.5817 30.9195 0 0 0 
536 179 2 15.9875 37.3414 31.4376 0 0 0 
537 179 2 16.0695 36.6295 29.9703 0 0 0 
538 180 1 28.1985 7.65237 32.767 0 1 0 
539 180 2 27.8133 7.87252 31.8708 0 1 0 
540 180 2 28.3316 6.66387 32.8388 0 1 0 
541 181 1 231.538 47.1838 43.3137 -1 0 0 
542 181 2 231.278 3.43379 42.5928 -1 1 0 
543 181 2 231.458 46.2478 42.9709 -1 0 0 
544 182 1 247.54 39.8271 5.35925 -1 0 1 
545 182 2 246.939 39.9798 4.57457 -1 0 1 
546 182 2 248.186 39.0933 5.14704 -1 0 1 
547 183 1 244.545 18.9011 18.5462 -1 1 0 
548 183 2 243.761 19.1402 17.9727 -1 1 0 
549 183 2 245.313 19.5029 18.3286 -1 1 0 
550 184 1 31.5989 44.7362 30.8636 0 0 -1 
551 184 2 31.5646 44.1182 31.649 0 0 -1 
552 184 2 32.5132 45.135 30.7929 0 0 -1 
553 185 1 239.786 14.3686 46.5295 -1 1 -1 
554 185 2 240.268 15.1267 46.9697 -1 1 -1 
555 185 2 238.849 14.3243 46.8735 -1 1 -1 
556 186 1 14.8769 4.96393 24.1743 0 1 0 
557 186 2 15.4764 4.86356 23.3802 0 1 0 
558 186 2 15.3827 5.39533 24.9213 0 1 0 
559 187 1 26.3819 14.9811 7.81425 0 1 0 
560 187 2 26.0328 15.1389 8.73793 0 1 0 
561 187 2 25.6488 14.62 7.23794 0 1 0 
562 188 1 18.1428 32.1867 10.4307 0 0 0 
563 188 2 18.9499 32.7764 10.4006 0 0 0 
564 188 2 18.378 31.3222 10.8749 0 0 0 
565 189 1 229.8 21.573 17.7236 -1 1 0 
566 189 2 230.508 20.8692 17.6623 -1 1 0 
567 189 2 229.105 21.408 17.0243 -1 1 0 
568 190 1 229.194 19.9921 6.33382 -1 1 1 
569 190 2 228.749 19.1619 5.99914 -1 1 1 
570 190 2 228.507 20.7035 6.48045 -1 1 1 
571 191 1 243.355 15.9461 22.1925 -1 1 0 
572 191 2 244.246 16.3548 22.3927 -1 1 0 
573 191 2 242.636 16.4777 22.6402 -1 1 0 
574 192 1 247.488 26.8807 47.084 -1 1 0 
575 192 2 247.882 26.718 46.1792 -1 1 0 
576 192 2 246.727 27.5248 47.0054 -1 1 0 
577 193 1 17.5953 47.1785 34.7984 0 0 0 
578 193 2 17.2102 46.6975 34.0108 0 0 0 
579 193 2 16.8667 2.99386 35.4511 0 1 0 
580 194 1 247.035 43.1014 45.6981 -1 0 0 
581 194 2 246.974 44.0612 45.4238 -1 0 0 
582 194 2 246.827 43.0197 46.673 -1 0 0 
583 195 1 216.717 33.5103 46.7677 -1 0 0 
584 195 2 217.293 32.8543 46.2795 -1 0 0 
585 195 2 217.118 33.7035 3.27095 -1 0 1 
586 196 1 236.423 8.99794 34.2915 -1 1 0 
587 196 2 236.212 9.93735 34.022 -1 1 0 
588 196 2 237.414 8.86439 34.2841 -1 1 0 
589 197 1 22.8723 41.9673 3.19283 0 -1 0 
590 197 2 22.0028 41.8234 3.66528 0 -1 0 
591 197 2 22.7262 41.9221 46.5969 0 -1 -1 
592 198 1 21.7334 40.6902 14.6914 0 -1 0 
593 198 2 22.5796 40.3827 15.1268 0 -1 0 
594 198 2 21.9338 41.4503 14.0732 0 -1 0 
595 199 1 16.9102 12.1104 46.4693 0 0 -1 
596 199 2 17.1302 11.3885 45.8132 0 0 -1 
597 199 2 16.3232 11.7393 47.1888 0 0 -1 
598 200 1 19.5526 41.7245 10.9828 0 -1 0 
599 200 2 19.3192 40.7591 11.0994 0 -1 0 
600 200 2 19.7684 41.9015 10.0225 0 -1 0 
601 201 1 37.7109 5.54855 19.6156 0 0 0 
602 201 2 36.8709 5.30862 19.1289 0 0 0 
603 201 2 38.09 6.3903 19.2312 0 0 0 
604 202 1 25.6825 43.8186 34.6346 0 -1 0 
605 202 2 25.7289 44.7993 34.4446 0 -1 0 
606 202 2 26.4151 43.5665 35.2667 0 -1 0 
607 203 1 52.1997 41.9989 32.7374 0 -1 0 
608 203 2 52.2029 42.5354 33.5814 0 -1 0 
609 203 2 51.8884 42.572 31.9793 0 -1 0 
610 204 1 25.6343 5.16748 19.8864 0 0 0 
611 204 2 26.052 4.37067 19.4499 0 0 0 
612 204 2 24.7923 5.4088 19.4039 0 0 0 
613 205 1 30.534 24.9359 9.26334 0 0 1 
614 205 2 30.5344 24.434 8.39842 0 0 1 
615 205 2 31.3483 24.6924 9.7903 0 0 1 
616 206 1 232.789 6.00427 21.5092 -1 0 0 
617 206 2 233.201 5.09743 21.4207 -1 0 0 
618 206 2 231.901 6.01346 21.0487 -1 0 0 
619 207 1 246.455 10.1157 22.6209 -1 0 0 
620 207 2 247.019 9.48022 23.1481 -1 0 0 
621 207 2 245.837 10.6037 23.2377 -1 0 0 
622 208 1 19.9703 43.0425 27.9803 0 -1 0 
623 208 2 20.2341 43.6044 27.1964 0 -1 0 
624 208 2 19.3302 43.552 28.5554 0 -1 0 
625 209 1 48.5647 13.3012 39.4007 0 0 0 
626 209 2 48.7917 13.5023 38.4478 0 0 0 
627 209 2 48.1146 12.4099 39.4551 0 0 0 
628 210 1 26.8654 14.5895 21.6971 0 0 1 
629 210 2 27.7962 14.8884 21.4869 0 0 1 
630 210 2 26.8992 13.7444 22.2308 0 0 1 
631 211 1 236.51 7.89512 38.2926 -1 0 -1 
632 211 2 236.009 7.8042 39.1532 -1 0 -1 
633 211 2 235.942 7.56277 37.5396 -1 0 -1 
634 212 1 237.825 12.039 10.6158 -1 0 0 
635 212 2 237.27 11.2563 10.8982 -1 0 0 
636 212 2 238.347 12.3772 11.3986 -1 0 0 
637 213 1 17.6594 12.004 11.792 0 0 0 
638 213 2 16.7967 11.9755 12.2969 0 0 0 
639 213 2 18.2339 11.2341 12.0699 0 0 0 
640 214 1 244.64 19.1882 15.2406 -1 0 0 
641 214 2 245.189 18.5421 15.7719 -1 0 0 
642 214 2 243.919 18.6935 14.7559 -1 0 0 
643 215 1 37.518 42.3735 24.4324 0 -1 0 
644 215 2 38.2537 42.8682 24.8951 0 -1 0 
645 215 2 36.6679 42.895 24.5063 0 -1 0 
646 216 1 245.508 15.8076 15.0623 -1 0 0 
647 216 2 246.051 16.3939 15.6637 -1 0 0 
648 216 2 244.926 15.2107 15.615 -1 0 0 
649 217 1 28.2715 39.9628 13.7539 0 0 0 
650 217 2 28.206 39.0932 13.2646 0 0 0 
651 217 2 29.1967 40.3301 13.6584 0 0 0 
652 218 1 26.6145 11.7311 18.5588 0 0 0 
653 218 2 26.4388 10.7509 18.6509 0 0 0 
654 218 2 27.5859 11.9116 18.7129 0 0 0 
655 219 1 19.4477 21.5692 20.4137 0 0 0 
656 219 2 19.9247 22.4227 20.6232 0 0 0 
657 219 2 18.5995 21.5232 20.9415 0 0 0 
658 220 1 30.2274 29.4608 37.0114 0 0 0 
659 220 2 29.323 29.0721 36.835 0 0 0 
660 220 2 30.6093 29.8167 36.1585 0 0 0 
661 221 1 243.161 13.7081 8.17844 -1 0 1 
662 221 2 243.612 13.7251 7.28616 -1 0 1 
663 221 2 243.404 12.8654 8.65885 -1 0 1 
664 222 1 18.0315 8.49198 10.5024 0 0 1 
665 222 2 18.4703 9.02872 11.2231 0 0 1 
666 222 2 17.7056 9.10445 9.78218 0 0 1 
667 223 1 28.1729 19.2056 21.9095 0 0 0 
668 223 2 27.6326 19.9003 22.3844 0 0 0 
669 223 2 28.7935 18.7651 22.5581 0 0 0 
670 224 1 37.4409 17.9754 42.7407 0 0 0 
671 224 2 37.1353 17.0697 42.4469 0 0 0 
672 224 2 38.4218 18.0679 42.57 0 0 0 
673 225 1 30.9385 4.4771 22.6342 0 0 0 
674 225 2 31.4262 5.16829 22.1009 0 0 0 
675 225 2 29.9676 4.71272 22.6767 0 0 0 
676 226 1 239.072 27.4088 20.5252 -1 0 0 
677 226 2 238.427 26.8142 21.0055 -1 0 0 
678 226 2 239.831 26.8613 20.172 -1 0 0 
679 227 1 16.7426 15.4415 14.8369 0 0 0 
680 227 2 16.5605 15.7636 15.7659 0 0 0 
681 227 2 17.6934 15.1389 14.7694 0 0 0 
682 228 1 17.7468 22.4507 10.0989 0 0 0 
683 228 2 17.6206 21.5915 10.5947 0 0 0 
684 228 2 18.4332 22.3245 9.38271 0 0 0 
685 229 1 225.536 33.5373 11.5472 -1 0 0 
686 229 2 225.802 32.9306 12.2962 -1 0 0 
687 229 2 224.8 34.1409 11.853 -1 0 0 
688 230 1 18.7082 21.723 26.8581 0 0 0 
689 230 2 17.9803 22.0625 27.4539 0 0 0 
690 230 2 19.3394 21.1594 27.3911 0 0 0 
691 231 1 28.5888 29.4712 14.9757 0 -1 0 
692 231 2 27.9519 29.1193 15.6617 0 -1 0 
693 231 2 29.3715 28.8535 14.8997 0 -1 0 
694 232 1 29.4781 18.7013 24.244 0 0 0 
695 232 2 30.0672 17.9981 24.642 0 0 0 
696 232 2 29.1742 19.3272 24.9623 0 0 0 
697 233 1 242.07 47.0014 33.7494 -1 -1 0 
698 233 2 241.225 46.51 33.5396 -1 -1 0 
699 233 2 241.924 3.59094 33.6292 -1 0 0 
700 234 1 15.6509 28.4932 16.9947 0 0 0 
701 234 2 15.6317 29.4817 17.1446 0 0 0 
702 234 2 16.5314 28.2331 16.5983 0 0 0 
703 235 1 25.8338 10.324 7.8158 0 0 1 
704 235 2 25.1158 10.8357 7.34384 0 0 1 
705 235 2 25.4183 9.70108 8.47867 0 0 1 
706 236 1 29.8161 33.1403 9.90577 0 0 1 
707 236 2 30.6221 33.5693 10.3137 0 0 1 
708 236 2 30.0626 32.2391 9.54922 0 0 1 
709 237 1 19.7349 9.14678 30.9204 0 0 0 
710 237 2 19.8641 9.68785 31.7514 0 0 0 
711 237 2 18.9815 9.53065 30.3865 0 0 0 
712 238 1 29.5382 27.5976 41.9719 0 0 0 
713 238 2 29.8248 27.1733 41.113 0 0 0 
714 238 2 30.0803 27.2248 42.725 0 0 0 
715 239 1 18.5991 30.7265 46.1747 0 0 -1 
716 239 2 18.1139 30.5001 47.0193 0 0 -1 
717 239 2 17.9882 30.595 45.3939 0 0 -1 
718 240 1 21.1129 10.953 36.9219 0 0 -1 
719 240 2 21.4518 11.5019 37.686 0 0 -1 
720 240 2 21.7773 10.2379 36.7047 0 0 -1 
721 241 1 220.305 24.7264 7.27914 -1 0 0 
722 241 2 219.536 24.1971 6.92137 -1 0 0 
723 241 2 221.098 24.1276 7.39128 -1 0 0 
724 242 1 241.691 9.18392 21.0259 -1 0 0 
725 242 2 242.657 8.93319 20.977 -1 0 0 
726 242 2 241.297 9.176 20.1065 -1 0 0 
727 243 1 16.779 28.3195 46.9003 0 0 -1 
728 243 2 17.581 28.2042 3.09406 0 0 0 
729 243 2 16.2406 27.4768 46.9024 0 0 -1 
730 244 1 18.1655 5.33249 15.6257 0 0 0 
731 244 2 18.5913 6.17637 15.2992 0 0 0 
732 244 2 17.8486 5.46095 16.5654 0 0 0 