LAMMPS (24 Apr 2013)
WARNING: OMP_NUM_THREADS environment is not set. (../comm.cpp:100)
  using 1 OpenMP thread(s) per MPI task
# LAMMPS 2005 MD Simulation Parameters - Generated by XenoView
# Structure file "C:\Users\laflij\Dropbox\Xenoview\34m.lmp"
# Source force field file pcff_d.frc

# Define units and force field
units		real
atom_style	full
boundary	p p p
pair_style	lj/class2/coul/long 7 10
bond_style      class2
angle_style     class2
dihedral_style  class2
improper_style  class2
kspace_style	pppm 0.0001

pair_modify mix sixthpower

# Read system data
read_data	100cPE-eq.data
  2 = max bonds/atom
  6 = max angles/atom
  9 = max dihedrals/atom
  4 = max impropers/atom
  orthogonal box = (-100 -20 -20) to (100 20 20)
  1 by 1 by 1 MPI processor grid
  12061 atoms
  8140 bonds
  4517 angles
  888 dihedrals
  397 impropers
  4 = max # of 1-2 neighbors
  6 = max # of 1-3 neighbors
  12 = max # of 1-4 neighbors
  16 = max # of special neighbors

# Energy minimization (polymer initially stretched)
#minimize 1.0e-16 1.0e-16 10000 100000

# Write initial structure out
dump            icrd all custom 5 system.lammpstrj id mol type x y z ix iy iz
dump_modify     icrd sort id
run             1
WARNING: No fixes defined, atoms won't move (../verlet.cpp:54)
PPPM initialization ...
  G vector (1/distance) = 0.251036
  grid = 72 20 20
  stencil order = 5
  estimated absolute RMS force accuracy = 0.0346421
  estimated relative force accuracy = 0.000104324
  using double precision FFTs
  3d grid and FFT values/proc = 52052 28800
Memory usage per processor = 39.3293 Mbytes
Step Temp E_pair E_mol TotEng Press 
       0            0    -13283.27    5683.5304   -7599.7396   -4563.0449 
       1            0    -13283.27    5683.5304   -7599.7396   -4563.0449 
Loop time of 0.067729 on 1 procs (1 MPI x 1 OpenMP) for 1 steps with 12061 atoms

Pair  time (%) = 0.0548511 (80.9861)
Bond  time (%) = 0.00230694 (3.40613)
Kspce time (%) = 0.010222 (15.0924)
Neigh time (%) = 0 (0)
Comm  time (%) = 0.000193119 (0.285135)
Outpt time (%) = 8.91685e-05 (0.131655)
Other time (%) = 6.67572e-05 (0.0985652)

FFT time (% of Kspce) = 0.0025207 (24.6596)
FFT Gflps 3d (1d only) = 2.34635 4.50097

Nlocal:    12061 ave 12061 max 12061 min
Histogram: 1 0 0 0 0 0 0 0 0 0
Nghost:    19842 ave 19842 max 19842 min
Histogram: 1 0 0 0 0 0 0 0 0 0
Neighs:    1.67447e+06 ave 1.67447e+06 max 1.67447e+06 min
Histogram: 1 0 0 0 0 0 0 0 0 0

Total # of neighbors = 1674473
Ave neighs/atom = 138.834
Ave special neighs/atom = 2.24608
Neighbor list builds = 0
Dangerous builds = 0

# Reset the timestep
undump          icrd
reset_timestep  0

# Timestep and Neighbour searching
timestep	0.25
neighbor	2.0 bin
#neigh_modify	check yes every 1 delay 0

# Computes
compute myRDF all rdf 100 1 1 1 2 2 2
compute myMSD all msd

# Fixes
#fix		1 all shake 0.0001 20 0 b 1 a 1
fix		1 all npt temp 300.0 300.0 100.0 iso 1.0 1.0 100.0
fix		2 all ave/time 1 500000 500000 c_myRDF file rdf.xvg mode vector
fix		3 all ave/time 1 500000 500000 c_myMSD file msd.xvg mode vector

# Initial velocity
velocity	all create 300 432567 dist uniform

# Write out thermodynamic information
thermo_style    custom step temp press vol pe ke evdwl ecoul epair
thermo	        250

# Write out trajectory
dump            cxtc all xtc 1 traj-0.xtc

# Write out velocity
#dump 		1 all custom 1 vel_npt.txt vx vy vz

# Checkpoint files
restart         50 state_cpt-*.data

# Final run command
run             250
PPPM initialization ...
  G vector (1/distance) = 0.251036
  grid = 72 20 20
  stencil order = 5
  estimated absolute RMS force accuracy = 0.0346421
  estimated relative force accuracy = 0.000104324
  using double precision FFTs
  3d grid and FFT values/proc = 52052 28800
Memory usage per processor = 38.9129 Mbytes
Step Temp Press Volume PotEng KinEng E_vdwl E_coul E_pair 
       0          300   -3022.4596       320000   -7599.7396    10784.571   -5474.3428    176772.06    -13283.27 
     250    278.60815    2258.5043    269454.72   -10723.342    10015.564   -6192.0631    174644.04   -16920.909 
Loop time of 24.9236 on 1 procs (1 MPI x 1 OpenMP) for 250 steps with 12061 atoms

Pair  time (%) = 10.3857 (41.6702)
Bond  time (%) = 0.546286 (2.19184)
Kspce time (%) = 2.55601 (10.2554)
Neigh time (%) = 1.10445 (4.43134)
Comm  time (%) = 0.0690074 (0.276875)
Outpt time (%) = 0.259965 (1.04304)
Other time (%) = 10.0022 (40.1313)

FFT time (% of Kspce) = 0.633624 (24.7896)
FFT Gflps 3d (1d only) = 2.33358 4.50841

Nlocal:    12061 ave 12061 max 12061 min
Histogram: 1 0 0 0 0 0 0 0 0 0
Nghost:    24153 ave 24153 max 24153 min
Histogram: 1 0 0 0 0 0 0 0 0 0
Neighs:    2.05368e+06 ave 2.05368e+06 max 2.05368e+06 min
Histogram: 1 0 0 0 0 0 0 0 0 0

Total # of neighbors = 2053680
Ave neighs/atom = 170.274
Ave special neighs/atom = 2.24608
Neighbor list builds = 17
Dangerous builds = 0
write_restart   confout-0.data
PPPM initialization ...
  G vector (1/distance) = 0.25605
  grid = 72 20 20
  stencil order = 5
  estimated absolute RMS force accuracy = 0.0292775
  estimated relative force accuracy = 8.81682e-05
  using double precision FFTs
  3d grid and FFT values/proc = 56133 28800
