ITEM: TIMESTEP
0
ITEM: NUMBER OF ATOMS
12061
ITEM: BOX BOUNDS pp pp pp
-96.3659 96.3659
-19.2732 19.2732
-19.2732 19.2732
ITEM: ATOMS id mol type x y z ix iy iz 
1 1 1 -28.6629 -0.132756 -0.407412 0 0 0 
2 1 1 -30.5185 -0.198928 0.191435 0 0 0 
3 1 2 -29.36 -0.141385 0.333714 0 0 0 
4 1 1 -29.0935 2.04291 0.953339 0 0 0 
5 1 1 -29.4487 0.975173 2.23804 0 0 0 
6 1 2 -28.8615 1.09106 1.27819 0 0 0 
7 1 1 -26.8372 1.44659 0.981433 0 0 0 
8 1 1 -27.581 2.30786 2.28148 0 0 0 
9 1 2 -27.4495 1.24369 1.96443 0 0 0 
10 1 1 -26.4725 -0.661034 2.48851 0 0 0 
11 1 1 -26.8034 0.424067 3.68863 0 0 0 
12 1 2 -26.4797 0.315 2.46155 0 0 0 
13 1 1 -25.2397 1.10645 3.79079 0 0 0 
14 1 1 -24.3857 -0.0405547 2.96044 0 0 0 
15 1 2 -25.0955 0.739663 2.88451 0 0 0 
16 1 1 -24.9979 2.41619 1.49944 0 0 0 
17 1 1 -23.5713 2.1262 2.44006 0 0 0 
18 1 2 -24.4925 1.65167 1.95657 0 0 0 
19 1 1 -23.1507 -0.254169 1.12831 0 0 0 
20 1 1 -24.858 0.1813 0.298738 0 0 0 
21 1 2 -23.7643 0.842813 0.865811 0 0 0 
22 1 1 -21.7706 0.955337 0.213908 0 0 0 
23 1 1 -22.4446 2.6676 0.0934618 0 0 0 
24 1 2 -22.7126 1.6171 -0.112397 0 0 0 
25 1 1 -24.0363 1.45387 -2.17634 0 0 0 
26 1 1 -22.1248 1.77326 -2.28197 0 0 0 
27 1 2 -22.9662 1.19428 -1.81187 0 0 0 
28 1 1 -22.9965 -1.06129 -1.81609 0 0 0 
29 1 1 -23.4719 -0.460433 -3.26511 0 0 0 
30 1 2 -22.677 -0.310948 -2.52023 0 0 0 
31 1 1 -21.3302 -1.78869 -3.38796 0 0 0 
32 1 1 -20.8381 -0.0191599 -3.56244 0 0 0 
33 1 2 -21.3593 -0.787241 -2.94588 0 0 0 
34 1 1 -20.9708 -1.09212 -0.79657 0 0 0 
35 1 1 -20.465 -2.35915 -1.84774 0 0 0 
36 1 2 -20.3224 -1.24482 -1.79066 0 0 0 
37 1 1 -18.6274 -2.03536 -3.04843 0 0 0 
38 1 1 -18.7894 -0.748995 -2.84427 0 0 0 
39 1 2 -18.8805 -1.60147 -2.0965 0 0 0 
40 1 1 -17.7637 -0.226763 -0.78425 0 0 0 
41 1 1 -17.698 -2.02036 -0.515763 0 0 0 
42 1 2 -17.7098 -1.30235 -1.39507 0 0 0 
43 1 1 -15.5477 -1.51181 -1.1884 0 0 0 
44 1 1 -16.2083 -2.75342 -2.16032 0 0 0 
45 1 2 -16.2892 -1.73222 -1.92311 0 0 0 
46 1 1 -15.7914 -1.78199 -4.46065 0 0 0 
47 1 1 -15.6885 -0.0371089 -3.6564 0 0 0 
48 1 2 -15.6668 -1.24904 -3.34306 0 0 0 
49 1 1 -13.805 -1.52246 -1.79036 0 0 0 
50 1 1 -14.2769 -2.51691 -2.98194 0 0 0 
51 1 2 -14.1902 -1.52358 -2.89861 0 0 0 
52 1 1 -13.3926 -0.394659 -4.91877 0 0 0 
53 1 1 -12.5762 -0.049387 -3.63246 0 0 0 
54 1 2 -13.2324 -0.950741 -3.90921 0 0 0 
55 1 1 -11.7649 -1.7241 -2.76268 0 0 0 
56 1 1 -12.4736 -2.97004 -3.29836 0 0 0 
57 1 2 -12.0379 -2.01305 -3.63465 0 0 0 
58 1 1 -11.4041 -2.62481 -5.33969 0 0 0 
59 1 1 -10.6604 -1.13472 -4.23381 0 0 0 
60 1 2 -10.7065 -2.14052 -4.46953 0 0 0 
61 1 1 -9.62827 -3.94306 -4.24733 0 0 0 
62 1 1 -8.78323 -2.45004 -4.42336 0 0 0 
63 1 2 -9.54453 -3.07429 -3.87637 0 0 0 
64 1 1 -10.2639 -3.47671 -1.73218 0 0 0 
65 1 1 -9.68734 -1.62702 -2.51079 0 0 0 
66 1 2 -9.3994 -2.69599 -2.2529 0 0 0 
67 1 1 -7.35926 -3.55363 -1.98717 0 0 0 
68 1 1 -7.71956 -2.38798 -0.731492 0 0 0 
69 1 2 -8.21069 -3.01323 -1.51379 0 0 0 
70 1 1 -9.6379 -4.99499 -1.11062 0 0 0 
71 1 1 -7.84494 -4.71967 -0.231662 0 0 0 
72 1 2 -8.83216 -4.24244 -0.760796 0 0 0 
73 1 1 -8.52404 -3.79202 1.07963 0 0 0 
74 1 1 -10.2626 -3.14289 0.417091 0 0 0 
75 1 2 -9.48266 -4.01414 0.582997 0 0 0 
76 1 1 -9.09447 -5.98903 1.71215 0 0 0 
77 1 1 -9.88621 -4.41472 2.38072 0 0 0 
78 1 2 -9.80812 -5.23588 1.49372 0 0 0 
79 1 1 -12.0685 -5.04844 1.17354 0 0 0 
80 1 1 -11.6552 -6.7253 1.37157 0 0 0 
81 1 2 -11.47 -5.76281 1.7974 0 0 0 
82 1 1 -12.3313 -6.79263 3.8034 0 0 0 
83 1 1 -10.9429 -5.3776 4.08816 0 0 0 
84 1 2 -11.9706 -5.58149 3.37832 0 0 0 
85 1 1 -13.9219 -4.84522 2.82622 0 0 0 
86 1 1 -13.7347 -5.42871 4.37503 0 0 0 
87 1 2 -13.116 -4.70766 3.68958 0 0 0 
88 1 1 -14.3297 -3.06084 4.46068 0 0 0 
89 1 1 -12.7597 -3.15289 5.0745 0 0 0 
90 1 2 -13.262 -3.07149 4.06376 0 0 0 
91 1 1 -13.4938 -1.05983 2.74707 0 0 0 
92 1 1 -13.5559 -0.986451 4.5782 0 0 0 
93 1 2 -13.0137 -1.36434 3.74193 0 0 0 
94 1 1 -10.7938 -1.72305 4.19333 0 0 0 
95 1 1 -11.281 -1.19084 2.56074 0 0 0 
96 1 2 -11.5548 -0.94922 3.65682 0 0 0 
97 1 1 -12.7979 0.556955 3.79836 0 0 0 
98 1 1 -11.4492 0.741942 5.00544 0 0 0 
99 1 2 -11.6878 0.630743 4.0406 0 0 0 
100 1 1 -11.1969 2.55297 3.84158 0 0 0 
101 1 1 -10.2567 1.75519 2.89716 0 0 0 
102 1 2 -11.2619 1.78535 3.12036 0 0 0 
103 1 1 -11.4695 2.67553 1.56244 0 0 0 
104 1 1 -12.6746 1.21458 1.18938 0 0 0 
105 1 2 -12.2525 2.17054 1.94655 0 0 0 
106 1 1 -14.2601 2.96269 1.63756 0 0 0 
107 1 1 -13.9382 2.88688 3.37857 0 0 0 
108 1 2 -13.4646 3.04878 2.43927 0 0 0 
109 1 1 -13.1083 4.9466 3.59649 0 0 0 
110 1 1 -11.9949 4.62225 2.37972 0 0 0 
111 1 2 -12.972 4.5142 2.52139 0 0 0 
112 1 1 -14.0099 4.98606 0.568376 0 0 0 
113 1 1 -14.7858 6.0005 1.7839 0 0 0 
114 1 2 -13.7725 5.69776 1.40726 0 0 0 
115 1 1 -14.3778 7.62659 0.285904 0 0 0 
116 1 1 -13.3892 7.73206 1.59206 0 0 0 
117 1 2 -13.397 7.01262 0.742007 0 0 0 
118 1 1 -12.7595 8.48716 -0.965571 0 0 0 
119 1 1 -11.5105 7.98976 0.613652 0 0 0 
120 1 2 -12.0579 7.55367 -0.154377 0 0 0 
121 1 1 -10.9746 5.4024 -0.718295 0 0 0 
122 1 1 -10.8968 6.49343 -2.29172 0 0 0 
123 1 2 -11.0281 6.50697 -1.14546 0 0 0 
124 1 1 -9.92315 7.22814 0.522514 0 0 0 
125 1 1 -9.06435 6.122 -0.188848 0 0 0 
126 1 2 -9.81108 6.93946 -0.474269 0 0 0 
127 1 1 -9.63843 9.10197 -0.164173 0 0 0 
128 1 1 -10.3279 8.58007 -1.6979 0 0 0 
129 1 2 -9.46869 8.48931 -0.945049 0 0 0 
130 1 1 -7.45995 9.56999 -1.69733 0 0 0 
131 1 1 -7.27679 8.32338 -0.329596 0 0 0 
132 1 2 -8.04738 8.60348 -1.39426 0 0 0 
133 1 1 -8.60701 7.67171 -3.35735 0 0 0 
134 1 1 -6.7685 8.42698 -3.07778 0 0 0 
135 1 2 -7.57559 7.78377 -2.66169 0 0 0 
136 1 1 -6.40907 6.47877 -1.19998 0 0 0 
137 1 1 -7.85545 5.84476 -1.85064 0 0 0 
138 1 2 -7.14538 6.48199 -2.11105 0 0 0 
139 1 1 -7.48524 6.30818 -4.11977 0 0 0 
140 1 1 -5.8028 6.27106 -3.66901 0 0 0 
141 1 2 -6.75606 5.93054 -3.3708 0 0 0 
142 1 1 -8.18794 4.18598 -2.84676 0 0 0 
143 1 1 -7.4314 4.15039 -4.50489 0 0 0 
144 1 2 -7.23865 4.44261 -3.4251 0 0 0 
145 1 1 -5.17682 3.78733 -2.81149 0 0 0 
146 1 1 -6.56577 2.56402 -3.17529 0 0 0 
147 1 2 -6.22648 3.53369 -2.74964 0 0 0 
148 1 1 -6.35508 4.01532 -0.814679 0 0 0 
149 1 1 -7.17353 2.42283 -1.14673 0 0 0 
150 1 2 -6.40951 3.18541 -1.2614 0 0 0 
151 1 1 -5.20347 1.59408 -0.671633 0 0 0 
152 1 1 -4.35354 2.90826 -0.662744 0 0 0 
153 1 2 -5.30535 2.57323 -0.504999 0 0 0 
154 1 1 -6.45097 3.58011 0.828788 0 0 0 
155 1 1 -6.74213 1.85383 0.899252 0 0 0 
156 1 2 -5.8492 2.50325 0.880157 0 0 0 
157 1 1 -4.28644 1.41696 1.36368 0 0 0 
158 1 1 -3.80106 3.16524 1.13797 0 0 0 
159 1 2 -4.52783 2.37202 1.71333 0 0 0 
160 1 1 -4.09077 3.51156 3.25488 0 0 0 
161 1 1 -3.58909 1.97544 3.59149 0 0 0 
162 1 2 -4.46852 2.66091 3.08312 0 0 0 
163 1 1 -4.78914 3.45915 5.25512 0 0 0 
164 1 1 -6.48178 3.54338 4.251 0 0 0 
165 1 2 -5.50147 2.97707 4.40208 0 0 0 
166 1 1 -6.4395 1.83519 5.8379 0 0 0 
167 1 1 -6.6002 0.802711 4.73677 0 0 0 
168 1 2 -5.75854 1.51614 5.07886 0 0 0 
169 1 1 -5.00318 1.35727 6.97989 0 0 0 
170 1 1 -4.91428 -0.236339 6.03795 0 0 0 
171 1 2 -4.67909 0.890086 5.98137 0 0 0 
172 1 1 -3.2926 0.98851 7.48517 0 0 0 
173 1 1 -3.04243 2.43218 6.34727 0 0 0 
174 1 2 -3.27453 1.29022 6.42849 0 0 0 
175 1 1 -2.20155 -0.814077 6.48069 0 0 0 
176 1 1 -2.47615 -0.044737 4.80369 0 0 0 
177 1 2 -2.2348 0.209415 5.68222 0 0 0 
178 1 1 -0.72451 1.2104 4.53613 0 0 0 
179 1 1 -0.296231 1.09276 6.12079 0 0 0 
180 1 2 -0.866385 0.613925 5.46131 0 0 0 
181 1 1 -0.39287 -1.27186 6.38063 0 0 0 
182 1 1 -1.28266 -1.44001 5.02159 0 0 0 
183 1 2 -0.229117 -0.738198 5.45827 0 0 0 
184 1 1 1.54173 -0.981705 3.9616 0 0 0 
185 1 1 0.204817 -2.26217 4.50506 0 0 0 
186 1 2 0.485068 -1.19568 4.08042 0 0 0 
187 1 1 -1.42091 -1.63098 3.14465 0 0 0 
188 1 1 -0.547369 0.251865 3.09198 0 0 0 
189 1 2 -0.529752 -0.880959 3.00955 0 0 0 
190 1 1 -0.217428 -0.855374 0.845884 0 0 0 
191 1 1 1.41162 -0.884846 2.03008 0 0 0 
192 1 2 0.298672 -1.42129 1.89573 0 0 0 
193 1 1 0.997019 -3.54861 1.47619 0 0 0 
194 1 1 -0.71594 -3.69523 1.23577 0 0 0 
195 1 2 0.209589 -2.92156 1.1582 0 0 0 
196 1 1 1.80975 -2.19053 -0.432902 0 0 0 
197 1 1 1.48939 -3.80279 -0.431118 0 0 0 
198 1 2 0.870024 -2.92361 -0.501793 0 0 0 
199 1 1 -0.425457 -3.92421 -1.86483 0 0 0 
200 1 1 -1.27736 -3.00826 -0.610164 0 0 0 
201 1 2 -0.426652 -2.95783 -1.40484 0 0 0 
202 1 1 -1.31069 -2.52296 -3.49134 0 0 0 
203 1 1 -0.483168 -0.920824 -2.62641 0 0 0 
204 1 2 -0.587019 -2.12709 -2.7983 0 0 0 
205 1 1 0.82118 -1.51023 -4.42383 0 0 0 
206 1 1 1.56128 -1.99083 -3.02856 0 0 0 
207 1 2 0.766586 -2.36483 -3.56104 0 0 0 
208 1 1 2.1544 -3.25817 -5.04697 0 0 0 
209 1 1 1.61568 -3.66196 -3.36327 0 0 0 
210 1 2 1.22511 -3.62762 -4.43676 0 0 0 
211 1 1 -0.47837 -5.44383 -5.00869 0 0 0 
212 1 1 1.05929 -5.42187 -5.60585 0 0 0 
213 1 2 0.747016 -5.19235 -4.69477 0 0 0 
214 1 1 1.94378 -5.53113 -3.22814 0 0 0 
215 1 1 0.517219 -6.60128 -3.09611 0 0 0 
216 1 2 1.27287 -6.17249 -3.66685 0 0 0 
217 1 1 3.06597 -6.74911 -5.12568 0 0 0 
218 1 1 2.29611 -8.21926 -4.68123 0 0 0 
219 1 2 2.37899 -7.11862 -4.29939 0 0 0 
220 1 1 2.51898 -7.21918 -2.25237 0 0 0 
221 1 1 3.69439 -8.40447 -3.05377 0 0 0 
222 1 2 3.14591 -7.38398 -3.01834 0 0 0 
223 1 1 4.64411 -6.98748 -3.71698 0 0 0 
224 1 1 3.73117 -5.56637 -3.83407 0 0 0 
225 1 2 4.20213 -6.33412 -3.10011 0 0 0 
226 1 1 4.55942 -5.94471 -0.985121 0 0 0 
227 1 1 6.00771 -5.62565 -2.02801 0 0 0 
228 1 2 4.88767 -5.51198 -2.02177 0 0 0 
229 1 1 4.54929 -4.05482 -3.44455 0 0 0 
230 1 1 3.23154 -4.3954 -2.30002 0 0 0 
231 1 2 4.27522 -4.19802 -2.25753 0 0 0 
232 1 1 3.66294 -2.35203 -1.86661 0 0 0 
233 1 1 4.01933 -2.88099 -0.164639 0 0 0 
234 1 2 4.6155 -2.88739 -1.18533 0 0 0 
235 1 1 6.05078 -1.52779 -1.82823 0 0 0 
236 1 1 5.79162 -1.37217 0.136318 0 0 0 
237 1 2 5.74626 -2.00587 -0.957208 0 0 0 
238 1 1 6.26733 -3.64876 -0.0811228 0 0 0 
239 1 1 7.5555 -3.31501 -1.21136 0 0 0 
240 1 2 6.93784 -2.86122 -0.386438 0 0 0 
241 1 1 7.16647 -2.03903 1.75351 0 0 0 
242 1 1 8.46916 -3.25795 1.2197 0 0 0 
243 1 2 7.81642 -2.49104 0.839463 0 0 0 
244 1 1 9.37094 -0.65987 0.487516 0 0 0 
245 1 1 10.1142 -2.43769 0.764186 0 0 0 
246 1 2 9.22128 -1.83216 0.232491 0 0 0 
247 1 1 9.80343 -2.59833 -1.86826 0 0 0 
248 1 1 9.12739 -1.0874 -1.85348 0 0 0 
249 1 2 9.74366 -1.72269 -1.21859 0 0 0 
250 1 1 12.2234 -1.387 -1.3273 0 0 0 
251 1 1 11.0505 -0.864697 -2.78633 0 0 0 
252 1 2 11.2744 -1.01907 -1.81211 0 0 0 
253 1 1 12.7442 0.603633 -2.26089 0 0 0 
254 1 1 11.0754 1.45348 -1.95001 0 0 0 
255 1 2 11.7165 0.700714 -1.65774 0 0 0 
256 1 1 11.5252 1.07979 0.370682 0 0 0 
257 1 1 12.8073 0.483721 0.32364 0 0 0 
258 1 2 12.2305 1.23221 -0.293527 0 0 0 
259 1 1 12.5131 3.28049 -0.935566 0 0 0 
260 1 1 11.8425 3.13886 0.60833 0 0 0 
261 1 2 12.5313 2.68883 -0.1493 0 0 0 
262 1 1 14.4956 3.71938 0.0527784 0 0 0 
263 1 1 13.4065 4.20697 0.77889 0 0 0 
264 1 2 13.7683 3.20394 0.591268 0 0 0 
265 1 1 13.3493 2.33743 2.48753 0 0 0 
266 1 1 14.878 2.0019 2.37811 0 0 0 
267 1 2 14.0875 2.71788 2.0263 0 0 0 
268 1 1 14.2201 4.74485 2.69024 0 0 0 
269 1 1 14.2422 3.6225 4.05656 0 0 0 
270 1 2 14.6622 3.72776 2.95918 0 0 0 
271 1 1 16.4374 2.9586 1.55643 0 0 0 
272 1 1 16.4282 4.49314 2.48101 0 0 0 
273 1 2 16.0637 3.50078 2.45095 0 0 0 
274 1 1 17.2793 2.9278 4.47801 0 0 0 
275 1 1 16.3588 1.72062 3.76495 0 0 0 
276 1 2 16.7335 2.72387 3.57791 0 0 0 
277 1 1 18.7584 1.62861 3.33144 0 0 0 
278 1 1 18.8833 2.75837 2.21143 0 0 0 
279 1 2 18.1124 2.00717 2.70143 0 0 0 
280 1 1 17.1127 0.173001 1.86035 0 0 0 
281 1 1 17.4934 1.09437 0.679176 0 0 0 
282 1 2 17.887 0.814757 1.69624 0 0 0 
283 1 1 19.2064 0.438135 0.0657016 0 0 0 
284 1 1 20.0089 0.909381 1.6287 0 0 0 
285 1 2 19.1633 0.397192 1.26308 0 0 0 
286 1 1 19.1373 -1.87637 2.04531 0 0 0 
287 1 1 20.1914 -1.43262 0.760993 0 0 0 
288 1 2 19.6962 -1.06444 1.61726 0 0 0 
289 1 1 21.1479 -0.823422 3.55524 0 0 0 
290 1 1 21.9814 -0.504639 2.14997 0 0 0 
291 1 2 21.0495 -1.14004 2.48282 0 0 0 
292 1 1 22.4851 -2.90168 1.77075 0 0 0 
293 1 1 22.4777 -2.53347 3.4292 0 0 0 
294 1 2 21.7043 -2.72941 2.63576 0 0 0 
295 1 1 20.7162 -4.20927 4.02029 0 0 0 
296 1 1 19.7128 -3.71919 2.67565 0 0 0 
297 1 2 20.5586 -3.4198 3.45971 0 0 0 
298 1 1 19.4989 -3.73865 5.47178 0 0 0 
299 1 1 20.9514 -2.98617 5.78667 0 0 0 
300 1 2 20.0967 -2.88673 4.91278 0 0 0 
301 1 1 19.6679 -1.95432 5.22495 0 0 0 
302 2 3 37.181 -15.5469 -13.679 0 0 0 
303 2 1 37.8729 -16.143 -13.3634 0 0 0 
304 2 1 36.9789 -14.9429 -12.9526 0 0 0 
305 3 3 32.7085 -11.6854 15.9731 0 0 -1 
306 3 1 33.2139 -10.8814 15.8161 0 0 -1 
307 3 1 32.7824 -12.2741 15.2162 0 0 -1 
308 4 3 28.4959 -10.8966 -18.2268 0 0 0 
309 4 1 29.3628 -10.544 -18.4592 0 0 0 
310 4 1 27.8382 -10.2227 -18.4264 0 0 0 
311 5 3 25.9227 -15.1474 -13.591 0 0 0 
312 5 1 25.425 -14.4933 -13.0954 0 0 0 
313 5 1 26.8079 -15.1286 -13.2135 0 0 0 
314 6 3 22.0664 -16.1283 -12.4444 0 0 0 
315 6 1 23.0206 -16.2618 -12.4482 0 0 0 
316 6 1 21.7525 -16.3413 -11.5626 0 0 0 
317 7 3 23.5596 -12.5133 -16.9462 0 0 0 
318 7 1 22.8854 -12.0595 -16.4327 0 0 0 
319 7 1 24.3424 -12.513 -16.3856 0 0 0 
320 8 3 26.3384 -14.5099 -18.6407 0 0 0 
321 8 1 25.4708 -14.1546 -18.4232 0 0 0 
322 8 1 26.2063 -15.333 -19.1096 0 0 0 
323 9 3 20.4499 -11.1819 -17.2389 0 0 0 
324 9 1 21.0944 -11.8624 -17.4628 0 0 0 
325 9 1 20.1701 -10.7458 -18.0483 0 0 0 
326 10 3 7.51782 -14.7593 -17.6346 0 0 0 
327 10 1 8.30242 -14.2005 -17.5997 0 0 0 
328 10 1 7.59276 -15.4568 -16.9788 0 0 0 
329 11 3 9.90812 -18.275 -13.3149 0 0 0 
330 11 1 10.6178 -18.2213 -13.9651 0 0 0 
331 11 1 9.36486 -17.4834 -13.375 0 0 0 
332 12 3 4.40929 -13.3339 -16.0037 0 0 0 
333 12 1 3.69675 -12.7103 -16.1992 0 0 0 
334 12 1 4.36282 -14.0506 -16.6442 0 0 0 
335 13 3 -0.64228 -13.1285 18.2728 0 0 -1 
336 13 1 0.26083 -12.9597 17.9827 0 0 -1 
337 13 1 -0.683609 -12.9208 19.214 0 0 -1 
338 14 3 -8.51385 -19.1596 -16.4763 0 0 0 
339 14 1 -7.55394 -19.068 -16.4668 0 0 0 
340 14 1 -8.82734 -19.0145 -17.3757 0 0 0 
341 15 3 -9.78463 -8.6503 -17.377 0 0 0 
342 15 1 -10.3274 -8.84679 -18.1488 0 0 0 
343 15 1 -9.09734 -9.32224 -17.2996 0 0 0 
344 16 3 -13.3641 -7.92664 -12.8041 0 0 0 
345 16 1 -14.2735 -7.76552 -12.5274 0 0 0 
346 16 1 -13.0292 -7.13017 -13.2316 0 0 0 
347 17 3 -14.3414 -14.7197 -15.1723 0 0 0 
348 17 1 -14.2931 -14.8359 -14.2207 0 0 0 
349 17 1 -15.1497 -14.2429 -15.3873 0 0 0 
350 18 3 -28.5765 -10.2228 -15.3235 0 0 0 
351 18 1 -29.0013 -9.39975 -15.0238 0 0 0 
352 18 1 -27.641 -10.1732 -15.0969 0 0 0 
353 19 3 -29.3851 -11.3141 -18.6221 0 0 0 
354 19 1 -29.1345 -10.4939 -19.0639 0 0 0 
355 19 1 -29.2768 -11.198 -17.6723 0 0 0 
356 20 3 -31.4511 19.259 17.8063 0 -1 -1 
357 20 1 -32.3193 19.2091 18.2123 0 -1 -1 
358 20 1 -31.3791 18.591 17.123 0 -1 -1 
359 21 3 -33.2411 -16.0919 -15.0135 0 0 0 
360 21 1 -34.0089 -16.1511 -14.4286 0 0 0 
361 21 1 -33.359 -16.6773 -15.7664 0 0 0 
362 22 3 -37.688 -10.7708 -18.8118 0 0 0 
363 22 1 -37.0854 -10.0179 -18.74 0 0 0 
364 22 1 -37.7124 -10.9505 18.7861 0 0 -1 
365 23 3 -52.3172 14.8183 16.5386 0 -1 -1 
366 23 1 -51.7866 15.6099 16.3978 0 -1 -1 
367 23 1 -53.0153 15.098 17.141 0 -1 -1 
368 24 3 -45.8771 15.3486 -18.8158 0 -1 0 
369 24 1 -45.279 14.6115 -18.6083 0 -1 0 
370 24 1 -46.6904 15.1445 -18.342 0 -1 0 
371 25 3 -52.7491 -14.6266 -18.4281 0 0 0 
372 25 1 -52.682 -15.2069 -17.6671 0 0 0 
373 25 1 -51.9677 -14.0646 -18.4316 0 0 0 
374 26 3 -50.1356 -12.9241 -17.1444 0 0 0 
375 26 1 -49.6181 -12.1796 -17.4735 0 0 0 
376 26 1 -49.6613 -13.3716 -16.4342 0 0 0 
377 27 3 -54.7609 -13.3592 -16.8976 0 0 0 
378 27 1 -54.0008 -12.8346 -16.6333 0 0 0 
379 27 1 -54.8524 -13.2659 -17.8523 0 0 0 
380 28 3 -64.0412 -15.0995 -13.2068 0 0 0 
381 28 1 -63.432 -15.8159 -13.4207 0 0 0 
382 28 1 -63.7204 -14.2855 -13.62 0 0 0 
383 29 3 -67.7002 -13.6451 -11.6209 0 0 0 
384 29 1 -66.743 -13.6843 -11.6573 0 0 0 
385 29 1 -68.0029 -14.302 -10.986 0 0 0 
386 30 3 -68.2998 -14.3201 -15.8515 0 0 0 
387 30 1 -67.3603 -14.1335 -15.769 0 0 0 
388 30 1 -68.7152 -13.5866 -16.3171 0 0 0 
389 31 3 -71.3027 -16.2474 -13.2219 0 0 0 
390 31 1 -70.924 -16.9763 -13.726 0 0 0 
391 31 1 -71.8075 -15.6778 -13.8092 0 0 0 
392 32 3 -73.8524 -13.3999 -12.1618 0 0 0 
393 32 1 -73.1367 -14.0459 -12.0729 0 0 0 
394 32 1 -74.5351 -13.6978 -11.5545 0 0 0 
395 33 3 -79.1652 -14.7491 -16.3347 0 0 0 
396 33 1 -78.5095 -14.0762 -16.5467 0 0 0 
397 33 1 -78.9488 -15.086 -15.4583 0 0 0 
398 34 3 -84.279 -9.96856 -15.3214 0 0 0 
399 34 1 -84.154 -10.8354 -15.7161 0 0 0 
400 34 1 -83.8544 -9.32063 -15.8986 0 0 0 
401 35 3 -86.4453 -17.4761 -13.4955 0 0 0 
402 35 1 -85.7958 -18.1748 -13.6384 0 0 0 
403 35 1 -87.3066 -17.8678 -13.3045 0 0 0 
404 36 3 -84.8228 18.6368 -17.3146 0 -1 0 
405 36 1 -85.0628 17.9883 -16.6485 0 -1 0 
406 36 1 -84.8635 18.2183 -18.1803 0 -1 0 
407 37 3 42.8684 -15.2079 -14.4194 0 0 0 
408 37 1 42.0967 -14.6607 -14.237 0 0 0 
409 37 1 43.6479 -14.7889 -14.0364 0 0 0 
410 38 3 48.2852 -17.3272 -16.0886 0 0 0 
411 38 1 47.9004 -16.4486 -16.0158 0 0 0 
412 38 1 49.1595 -17.2651 -16.4865 0 0 0 
413 39 3 54.6173 -14.3658 -7.78292 0 0 0 
414 39 1 53.6826 -14.2481 -7.56093 0 0 0 
415 39 1 55.0136 -13.487 -7.83068 0 0 0 
416 40 3 55.594 -15.15 -14.2174 0 0 0 
417 40 1 55.8779 -14.5843 -14.9423 0 0 0 
418 40 1 56.1902 -15.0602 -13.4625 0 0 0 
419 41 3 64.9214 18.7014 -13.3557 0 -1 0 
420 41 1 64.9255 17.782 -13.07 0 -1 0 
421 41 1 65.6046 19.1592 -12.8603 0 -1 0 
422 42 3 61.2765 -16.1171 -16.1041 0 0 0 
423 42 1 60.6528 -16.2756 -15.3889 0 0 0 
424 42 1 62.052 -15.6933 -15.7278 0 0 0 
425 43 3 66.2426 -12.3516 -10.507 0 0 0 
426 43 1 66.3403 -12.9489 -9.7541 0 0 0 
427 43 1 66.7789 -12.7159 -11.22 0 0 0 
428 44 3 69.5827 -11.2053 -12.5739 0 0 0 
429 44 1 68.9188 -10.5143 -12.4912 0 0 0 
430 44 1 69.8966 -11.1736 -13.4867 0 0 0 
431 45 3 73.8661 -12.5163 -8.9361 0 0 0 
432 45 1 74.168 -11.9806 -8.19455 0 0 0 
433 45 1 73.2844 -13.1935 -8.58011 0 0 0 
434 46 3 75.7044 -12.6255 -13.2985 0 0 0 
435 46 1 76.446 -13.0063 -12.8152 0 0 0 
436 46 1 75.3865 -11.8864 -12.7708 0 0 0 
437 47 3 78.8921 -12.3232 -13.0105 0 0 0 
438 47 1 79.3284 -12.6823 -13.7888 0 0 0 
439 47 1 79.1918 -12.8355 -12.2522 0 0 0 
440 48 3 81.4969 -13.8992 -13.852 0 0 0 
441 48 1 81.6258 -14.7227 -14.3352 0 0 0 
442 48 1 81.6337 -14.1424 -12.9277 0 0 0 
443 49 3 84.2189 -15.5933 -13.9157 0 0 0 
444 49 1 84.3011 -14.6838 -14.2246 0 0 0 
445 49 1 84.9538 -16.0821 -14.2954 0 0 0 
446 50 3 84.2955 -16.7371 -10.2774 0 0 0 
447 50 1 83.9168 -16.7664 -11.1645 0 0 0 
448 50 1 84.8638 -15.9618 -10.2591 0 0 0 
449 51 3 42.1227 -11.098 -14.1256 0 0 0 
450 51 1 41.2151 -10.844 -13.94 0 0 0 
451 51 1 42.2995 -10.9543 -15.0629 0 0 0 
452 52 3 33.7081 -16.2002 -13.592 0 0 0 
453 52 1 33.4937 -16.4765 -14.483 0 0 0 
454 52 1 34.5721 -15.7645 -13.6352 0 0 0 
455 53 3 34.7444 -12.3694 -15.6188 0 0 0 
456 53 1 35.6806 -12.1903 -15.7852 0 0 0 
457 53 1 34.3517 -12.737 -16.4209 0 0 0 
458 54 3 27.6086 -12.6236 -15.827 0 0 0 
459 54 1 27.2738 -13.4331 -16.2348 0 0 0 
460 54 1 28.3417 -12.276 -16.3489 0 0 0 
461 55 3 25.5963 -10.6949 -14.3212 0 0 0 
462 55 1 25.5566 -10.9776 -13.4038 0 0 0 
463 55 1 26.5037 -10.8648 -14.615 0 0 0 
464 56 3 21.4607 -14.4362 -15.1765 0 0 0 
465 56 1 21.8393 -15.3156 -15.1426 0 0 0 
466 56 1 21.9455 -13.9083 -14.5392 0 0 0 
467 57 3 14.6802 -9.24541 -9.81382 0 0 0 
468 57 1 14.6849 -8.8332 -10.6821 0 0 0 
469 57 1 14.8777 -8.54226 -9.18132 0 0 0 
470 58 3 17.4201 -13.0619 -13.0467 0 0 0 
471 58 1 16.8446 -13.1986 -12.2862 0 0 0 
472 58 1 17.6446 -13.9299 -13.3934 0 0 0 
473 59 3 12.8944 -11.3135 -15.9898 0 0 0 
474 59 1 13.8244 -11.0967 -16.1312 0 0 0 
475 59 1 12.5029 -10.529 -15.5936 0 0 0 
476 60 3 9.09307 -11.7767 -15.4787 0 0 0 
477 60 1 9.02181 -11.8792 -14.524 0 0 0 
478 60 1 10.0238 -11.8734 -15.7133 0 0 0 
479 61 3 6.57753 -10.9091 -17.9476 0 0 0 
480 61 1 6.00574 -11.12 -17.2055 0 0 0 
481 61 1 7.37511 -10.491 -17.6139 0 0 0 
482 62 3 1.26893 -12.2325 -17.8127 0 0 0 
483 62 1 0.843128 -12.6263 -17.0439 0 0 0 
484 62 1 1.06907 -11.2887 -17.8585 0 0 0 
485 63 3 -6.92068 -12.5728 -18.7705 0 0 0 
486 63 1 -7.60943 -12.314 -18.1564 0 0 0 
487 63 1 -6.70108 -13.4994 -18.6373 0 0 0 
488 64 3 -5.9653 -6.51571 -17.5691 0 0 0 
489 64 1 -5.86839 -6.12611 -18.4428 0 0 0 
490 64 1 -6.91214 -6.65879 -17.427 0 0 0 
491 65 3 -9.0902 -12.3264 -16.1737 0 0 0 
492 65 1 -8.42473 -12.8886 -15.7596 0 0 0 
493 65 1 -9.60041 -12.9014 -16.756 0 0 0 
494 66 3 -19.8444 -13.0089 -12.4612 0 0 0 
495 66 1 -20.2364 -12.1227 -12.4274 0 0 0 
496 66 1 -19.2152 -13.0458 -13.1964 0 0 0 
497 67 3 -22.2893 -11.966 -15.1468 0 0 0 
498 67 1 -21.8424 -12.7532 -14.8201 0 0 0 
499 67 1 -22.8355 -12.2381 -15.8865 0 0 0 
500 68 3 -31.7639 -11.1323 -15.1934 0 0 0 
501 68 1 -31.0061 -11.619 -15.5359 0 0 0 
502 68 1 -31.6452 -11.1271 -14.2342 0 0 0 
503 69 3 -26.9134 -6.98998 -14.4945 0 0 0 
504 69 1 -27.407 -7.00203 -13.6686 0 0 0 
505 69 1 -26.1051 -7.50341 -14.34 0 0 0 
506 70 3 -32.8001 -13.5182 -19.1555 0 0 0 
507 70 1 -33.3473 -13.7897 -18.4127 0 0 0 
508 70 1 -32.1416 -12.8817 -18.8453 0 0 0 
509 71 3 -34.8736 -9.68262 -12.3606 0 0 0 
510 71 1 -35.7213 -10.1265 -12.3271 0 0 0 
511 71 1 -34.8772 -9.09303 -11.5881 0 0 0 
512 72 3 -39.5673 -13.002 -17.5734 0 0 0 
513 72 1 -40.3733 -12.499 -17.7164 0 0 0 
514 72 1 -38.914 -12.4024 -17.1851 0 0 0 
515 73 3 -45.3685 -15.2175 -15.7411 0 0 0 
516 73 1 -44.8457 -14.7981 -15.0513 0 0 0 
517 73 1 -44.7913 -15.875 -16.1454 0 0 0 
518 74 3 -52.805 -9.79632 -18.2224 0 0 0 
519 74 1 -52.5765 -9.1034 -18.8507 0 0 0 
520 74 1 -52.4285 -9.53819 -17.3756 0 0 0 
521 75 3 -50.694 -7.35669 18.9564 0 0 -1 
522 75 1 -50.7073 -6.49493 -19.1584 0 0 0 
523 75 1 -50.0319 -7.29226 18.2562 0 0 -1 
524 76 3 -56.6723 -12.0381 -11.1982 0 0 0 
525 76 1 -57.2572 -11.8566 -10.446 0 0 0 
526 76 1 -56.3763 -12.9564 -11.1606 0 0 0 
527 77 3 -61.8606 -14.2061 -15.4847 0 0 0 
528 77 1 -61.8087 -13.2977 -15.8014 0 0 0 
529 77 1 -61.2926 -14.741 -16.0468 0 0 0 
530 78 3 -65.3439 -11.351 -13.6806 0 0 0 
531 78 1 -65.0632 -10.4235 -13.7017 0 0 0 
532 78 1 -65.3965 -11.66 -14.5933 0 0 0 
533 79 3 -65.9515 -10.0855 -10.563 0 0 0 
534 79 1 -66.3418 -10.3744 -11.393 0 0 0 
535 79 1 -66.0335 -9.12515 -10.5077 0 0 0 
536 80 3 -72.7981 -12.3435 -16.4856 0 0 0 
537 80 1 -72.6734 -11.8115 -15.6865 0 0 0 
538 80 1 -72.9621 -11.7158 -17.1961 0 0 0 
539 81 3 -70.9722 -13.3887 -13.1418 0 0 0 
540 81 1 -70.249 -14.0257 -13.0876 0 0 0 
541 81 1 -71.1845 -13.2339 -14.0692 0 0 0 
542 82 3 -77.1439 -10.22 -15.4167 0 0 0 
543 82 1 -77.3502 -10.914 -14.7827 0 0 0 
544 82 1 -77.9616 -9.86234 -15.7852 0 0 0 
545 83 3 -81.164 -11.0689 -15.3865 0 0 0 
546 83 1 -81.6833 -11.5709 -16.02 0 0 0 
547 83 1 -80.8453 -11.7035 -14.7334 0 0 0 
548 84 3 -82.4646 -13.8054 -16.3965 0 0 0 
549 84 1 -82.4913 -13.7765 -17.3566 0 0 0 
550 84 1 -81.7359 -14.3816 -16.1251 0 0 0 
551 85 3 -86.9733 -14.2686 -12.5278 0 0 0 
552 85 1 -86.2757 -14.3397 -11.8749 0 0 0 
553 85 1 -87.0248 -15.1062 -12.9984 0 0 0 
554 86 3 45.0052 -7.95025 -19.1954 0 0 0 
555 86 1 44.4814 -7.83545 18.5512 0 0 -1 
556 86 1 45.6116 -7.20252 -19.1357 0 0 0 
557 87 3 48.873 -13.5506 -12.0704 0 0 0 
558 87 1 49.5124 -12.9435 -11.6934 0 0 0 
559 87 1 49.3242 -14.3543 -12.3526 0 0 0 
560 88 3 52.301 -12.1217 -13.2766 0 0 0 
561 88 1 52.6904 -12.8492 -12.7871 0 0 0 
562 88 1 52.3996 -12.2969 -14.2173 0 0 0 
563 89 3 58.755 -12.427 -10.788 0 0 0 
564 89 1 58.6864 -12.9411 -9.97257 0 0 0 
565 89 1 57.9375 -11.9246 -10.9091 0 0 0 
566 90 3 59.2172 -6.24649 -12.1758 0 0 0 
567 90 1 60.108 -6.39053 -12.5254 0 0 0 
568 90 1 58.7237 -5.7929 -12.8715 0 0 0 
569 91 3 60.5844 -13.9386 -12.8912 0 0 0 
570 91 1 60.7416 -13.0666 -13.2625 0 0 0 
571 91 1 59.9174 -13.8219 -12.2042 0 0 0 
572 92 3 66.1926 -11.3914 -14.8959 0 0 0 
573 92 1 66.1306 -10.8176 -14.13 0 0 0 
574 92 1 66.9945 -11.1073 -15.3572 0 0 0 
575 93 3 69.6441 -11.5317 -8.84902 0 0 0 
576 93 1 69.3348 -12.42 -8.63581 0 0 0 
577 93 1 69.9765 -11.5554 -9.75832 0 0 0 
578 94 3 75.2639 -15.378 -10.5639 0 0 0 
579 94 1 74.4491 -15.1944 -10.0822 0 0 0 
580 94 1 75.0629 -15.1078 -11.4742 0 0 0 
581 95 3 75.6022 -9.42229 -11.6945 0 0 0 
582 95 1 76.2903 -8.87922 -11.3009 0 0 0 
583 95 1 75.7841 -9.41467 -12.6429 0 0 0 
584 96 3 77.315 -9.77236 -15.046 0 0 0 
585 96 1 76.8398 -9.99817 -15.8529 0 0 0 
586 96 1 77.4587 -10.5982 -14.5588 0 0 0 
587 97 3 81.9643 -10.4551 -14.403 0 0 0 
588 97 1 82.4379 -10.3062 -13.5797 0 0 0 
589 97 1 81.8341 -11.4099 -14.484 0 0 0 
590 98 3 84.6699 -12.2607 -12.9595 0 0 0 
591 98 1 83.8805 -12.6501 -12.5672 0 0 0 
592 98 1 84.7817 -11.3905 -12.5603 0 0 0 
593 99 3 88.0996 -14.2053 -13.0617 0 0 0 
594 99 1 88.7833 -13.5648 -12.8368 0 0 0 
595 99 1 87.2971 -13.6908 -13.2197 0 0 0 
596 100 3 39.7843 -7.42448 16.386 0 0 -1 
597 100 1 39.3091 -7.41935 15.5446 0 0 -1 
598 100 1 40.1099 -8.3172 16.5328 0 0 -1 
599 101 3 38.0924 -10.903 -15.6928 0 0 0 
600 101 1 38.3207 -11.7661 -16.0547 0 0 0 
601 101 1 38.9047 -10.394 -15.5697 0 0 0 
602 102 3 29.1294 -8.14965 -16.6952 0 0 0 
603 102 1 28.6477 -8.47813 -15.9135 0 0 0 
604 102 1 30.0616 -8.13967 -16.4576 0 0 0 
605 103 3 26.5608 -6.13928 -16.8688 0 0 0 
606 103 1 27.3185 -6.54308 -17.3092 0 0 0 
607 103 1 25.8194 -6.75128 -16.9672 0 0 0 
608 104 3 22.3422 -7.36977 -16.1996 0 0 0 
609 104 1 22.1627 -7.43329 -15.2564 0 0 0 
610 104 1 22.2582 -8.26265 -16.5605 0 0 0 
611 105 3 22.6385 -9.79374 -12.2647 0 0 0 
612 105 1 21.8838 -9.6456 -12.8428 0 0 0 
613 105 1 22.5206 -10.6544 -11.8477 0 0 0 
614 106 3 12.9032 -7.75461 -17.0701 0 0 0 
615 106 1 13.557 -7.13443 -17.4075 0 0 0 
616 106 1 12.8976 -8.51969 -17.6573 0 0 0 
617 107 3 15.5567 -9.3239 -17.1691 0 0 0 
618 107 1 15.126 -9.03486 -17.9753 0 0 0 
619 107 1 15.4807 -8.65561 -16.4758 0 0 0 
620 108 3 9.82553 -12.8075 -11.8262 0 0 0 
621 108 1 9.38347 -12.807 -10.9691 0 0 0 
622 108 1 10.0696 -13.7145 -12.0326 0 0 0 
623 109 3 5.97329 -10.8557 -13.9197 0 0 0 
624 109 1 5.0204 -10.7728 -14.0126 0 0 0 
625 109 1 6.22573 -11.5453 -14.5495 0 0 0 
626 110 3 -1.35995 -6.59884 -18.3811 0 0 0 
627 110 1 -2.25906 -6.955 -18.3697 0 0 0 
628 110 1 -1.0786 -6.49844 -17.4576 0 0 0 
629 111 3 -1.22697 -10.5929 15.3687 0 0 -1 
630 111 1 -0.309006 -10.7885 15.1852 0 0 -1 
631 111 1 -1.74805 -11.3704 15.1527 0 0 -1 
632 112 3 -5.76332 -5.53822 -14.2775 0 0 0 
633 112 1 -6.35634 -6.02873 -13.6956 0 0 0 
634 112 1 -6.31206 -5.10018 -14.9411 0 0 0 
635 113 3 -7.06176 -5.09623 18.3193 0 0 -1 
636 113 1 -7.94213 -4.75253 18.5233 0 0 -1 
637 113 1 -6.98989 -5.12377 17.36 0 0 -1 
638 114 3 -14.6443 -6.17265 -10.5564 0 0 0 
639 114 1 -14.7164 -5.72195 -9.70905 0 0 0 
640 114 1 -15.2364 -6.94042 -10.5515 0 0 0 
641 115 3 -15.0886 -7.73208 -18.5841 0 0 0 
642 115 1 -14.158 -7.93554 -18.7096 0 0 0 
643 115 1 -15.2145 -6.80175 -18.7996 0 0 0 
644 116 3 -21.3406 -10.087 18.8775 0 0 -1 
645 116 1 -21.5154 -9.28545 18.3696 0 0 -1 
646 116 1 -20.828 -10.6625 18.2963 0 0 -1 
647 117 3 -25.2591 -6.14741 -19.119 0 0 0 
648 117 1 -25.8001 -6.68621 18.8457 0 0 -1 
649 117 1 -25.1856 -6.60876 -18.2809 0 0 0 
650 118 3 -30.5816 -7.26858 -16.3132 0 0 0 
651 118 1 -30.9974 -6.59648 -15.7622 0 0 0 
652 118 1 -31.064 -8.09602 -16.1873 0 0 0 
653 119 3 -34.6925 -10.7164 -17.466 0 0 0 
654 119 1 -34.836 -11.5786 -17.8607 0 0 0 
655 119 1 -34.1967 -10.8337 -16.6464 0 0 0 
656 120 3 -33.7254 -8.54935 -15.0283 0 0 0 
657 120 1 -34.5825 -8.9214 -14.7958 0 0 0 
658 120 1 -33.0615 -9.20106 -14.7899 0 0 0 
659 121 3 -36.4792 -12.3063 -14.1776 0 0 0 
660 121 1 -36.6306 -11.3583 -14.2099 0 0 0 
661 121 1 -36.6085 -12.6015 -13.2703 0 0 0 
662 122 3 -42.2765 -14.9977 -17.4488 0 0 0 
663 122 1 -41.9659 -14.9552 -16.5414 0 0 0 
664 122 1 -41.5188 -15.1738 -18.0096 0 0 0 
665 123 3 -49.0737 -10.25 17.3104 0 0 -1 
666 123 1 -49.0752 -11.2089 17.4012 0 0 -1 
667 123 1 -49.3925 -9.89401 18.1495 0 0 -1 
668 124 3 -46.8949 -8.18416 -17.7244 0 0 0 
669 124 1 -46.407 -8.18086 -16.8911 0 0 0 
670 124 1 -47.5568 -7.48855 -17.6218 0 0 0 
671 125 3 -53.3058 -9.97897 -14.0877 0 0 0 
672 125 1 -52.9557 -9.09601 -14.2035 0 0 0 
673 125 1 -53.1432 -10.2159 -13.1655 0 0 0 
674 126 3 -61.8165 -6.81733 -11.8999 0 0 0 
675 126 1 -62.2964 -7.54642 -12.3189 0 0 0 
676 126 1 -61.9664 -6.89282 -10.9471 0 0 0 
677 127 3 -62.4104 -9.85194 -14.0629 0 0 0 
678 127 1 -61.4701 -9.95805 -13.8581 0 0 0 
679 127 1 -62.4977 -9.22345 -14.784 0 0 0 
680 128 3 -67.4325 -7.57755 -18.0604 0 0 0 
681 128 1 -67.2759 -8.409 -18.5228 0 0 0 
682 128 1 -68.3741 -7.50171 -17.8978 0 0 0 
683 129 3 -68.8976 -11.3221 -14.2785 0 0 0 
684 129 1 -68.7289 -12.1598 -13.8232 0 0 0 
685 129 1 -68.0954 -10.7976 -14.1758 0 0 0 
686 130 3 -75.067 -7.7659 -14.38 0 0 0 
687 130 1 -75.3694 -8.65942 -14.6036 0 0 0 
688 130 1 -75.8417 -7.33973 -13.9916 0 0 0 
689 131 3 -75.7351 -13.4943 -14.9461 0 0 0 
690 131 1 -75.2376 -14.0317 -15.5724 0 0 0 
691 131 1 -75.1448 -13.172 -14.2528 0 0 0 
692 132 3 -80.4211 -6.48839 -16.5568 0 0 0 
693 132 1 -81.3117 -6.44665 -16.1878 0 0 0 
694 132 1 -79.7902 -6.58009 -15.8309 0 0 0 
695 133 3 -86.77 -2.04085 -15.4713 0 0 0 
696 133 1 -87.1149 -2.83656 -15.0502 0 0 0 
697 133 1 -86.6887 -1.34552 -14.8131 0 0 0 
698 134 3 -88.793 -11.7523 -13.5454 0 0 0 
699 134 1 -89.6573 -11.6309 -13.1346 0 0 0 
700 134 1 -88.9319 -11.9557 -14.4741 0 0 0 
701 135 3 47.8542 -7.01346 -14.1329 0 0 0 
702 135 1 48.4665 -7.61212 -14.5649 0 0 0 
703 135 1 47.8627 -7.21412 -13.1857 0 0 0 
704 136 3 43.425 -10.9716 -18.584 0 0 0 
705 136 1 43.6499 -10.0472 -18.7186 0 0 0 
706 136 1 44.2591 -11.4237 -18.3974 0 0 0 
707 137 3 52.0465 -17.1155 -15.347 0 0 0 
708 137 1 51.7202 -17.609 -14.5916 0 0 0 
709 137 1 52.9037 -16.7445 -15.113 0 0 0 
710 138 3 53.6775 -11.2806 -7.83421 0 0 0 
711 138 1 54.2153 -11.2289 -7.03546 0 0 0 
712 138 1 54.2668 -11.1139 -8.57763 0 0 0 
713 139 3 63.6722 -2.72177 15.1287 0 0 -1 
714 139 1 63.2911 -1.92969 14.7304 0 0 -1 
715 139 1 64.6065 -2.51428 15.2275 0 0 -1 
716 140 3 63.3386 -12.4265 -14.9261 0 0 0 
717 140 1 62.7568 -13.1089 -15.2717 0 0 0 