LAMMPS (24 Apr 2013)
WARNING: OMP_NUM_THREADS environment is not set. (../comm.cpp:100)
  using 1 OpenMP thread(s) per MPI task
# ----------------- Init Section -----------------
units           real
atom_style      full
boundary	p p p
kspace_style	pppm 1.0e-4

# ----------------- Atom Definition Section -----------------
read_restart	confout-0.data
  orthogonal box = (0.0541629 0.0239324 0.0239324) to (85.9458 37.9761 37.9761)
  1 by 1 by 1 MPI processor grid
  9043 atoms
  6036 bonds
  3006 angles
  2 = max # of 1-2 neighbors
  2 = max # of 1-3 neighbors
  4 = max # of 1-4 neighbors
  6 = max # of special neighbors

# ----------------- Settings Section -----------------------

group spc type	1 2
9018 atoms in group spc

# ----------------- Run Section -----------------
# Write initial structure out
dump            icrd all custom 5 system.lammpstrj id mol type x y z ix iy iz
dump_modify     icrd sort id
run             1
WARNING: No fixes defined, atoms won't move (../verlet.cpp:54)
PPPM initialization ...
  G vector (1/distance) = 0.265109
  grid = 40 20 20
  stencil order = 5
  estimated absolute RMS force accuracy = 0.0318436
  estimated relative force accuracy = 9.5896e-05
  using double precision FFTs
  3d grid and FFT values/proc = 32805 16000
Memory usage per processor = 29.9905 Mbytes
Step Temp E_pair E_mol TotEng Press 
     500    203.01873   -27085.892  0.010165153   -21614.022    17094.093 
     501    203.01873   -27085.892  0.010165153   -21614.022    17094.093 
Loop time of 0.07833 on 1 procs (1 MPI x 1 OpenMP) for 1 steps with 9043 atoms

Pair  time (%) = 0.0703769 (89.8466)
Bond  time (%) = 0.000581026 (0.741767)
Kspce time (%) = 0.00708199 (9.04121)
Neigh time (%) = 0 (0)
Comm  time (%) = 0.000177145 (0.226152)
Outpt time (%) = 6.58035e-05 (0.084008)
Other time (%) = 4.72069e-05 (0.0602666)

FFT time (% of Kspce) = 0.00137459 (19.4096)
FFT Gflps 3d (1d only) = 2.25356 4.39924

Nlocal:    9043 ave 9043 max 9043 min
Histogram: 1 0 0 0 0 0 0 0 0 0
Nghost:    21955 ave 21955 max 21955 min
Histogram: 1 0 0 0 0 0 0 0 0 0
Neighs:    2.30196e+06 ave 2.30196e+06 max 2.30196e+06 min
Histogram: 1 0 0 0 0 0 0 0 0 0

Total # of neighbors = 2301960
Ave neighs/atom = 254.557
Ave special neighs/atom = 2.00973
Neighbor list builds = 0
Dangerous builds = 0

# Reset the timestep
undump          icrd

# Timestep and Neighbour searching
timestep	2.0
neighbor        2.0 bin
neigh_modify	delay 4 every 1 check yes

# Fixes
fix 		shake spc shake 0.0001 10 0 b 1 a 1
  0 = # of size 2 clusters
  0 = # of size 3 clusters
  0 = # of size 4 clusters
  3006 = # of frozen angles
fix   		npt all npt temp 300.0 300.0 100.0 iso 1.0 1.0 1000.0

# Initial velocity
#velocity	all create 300 432567 dist uniform

# Write out thermodynamic information
thermo_style    custom step temp press vol pe ke evdwl ecoul epair
thermo	        250

# Write out trajectory
dump            cxtc all xtc 250 traj-1.xtc

# Write out velocity
#dump 		1 all custom 1 vel_npt.txt vx vy vz

# Checkpoint files
restart         5000 state_cpt-*.data

# Final run command
run             250000
PPPM initialization ...
  G vector (1/distance) = 0.265109
  grid = 40 20 20
  stencil order = 5
  estimated absolute RMS force accuracy = 0.0318436
  estimated relative force accuracy = 9.5896e-05
  using double precision FFTs
  3d grid and FFT values/proc = 32805 16000
Memory usage per processor = 30.238 Mbytes
Step Temp Press Volume PotEng KinEng E_vdwl E_coul E_pair 
     501    304.12448    358.60091    123715.32   -27085.882    5471.8592    4841.9087    118479.26   -27085.892 
     750    301.99633   -157.30654    121771.16   -27764.633    5433.5691    4840.4392     117815.3   -27764.805 
    1000    302.44353   -318.73143     116819.6    -28350.22    5441.6153    4867.3696     117217.3    -28352.56 
    1250     300.8773   -303.65521    113593.67   -28601.002    5413.4353    4924.9625    116911.24   -28603.569 
    1500    301.66276   -142.59996    110224.02    -28632.16    5427.5675    4949.3925     116861.1   -28635.469 
    1750     298.6882   -205.83695    107089.83   -28774.297    5374.0488    4914.7498    116760.01   -28777.788 
    2000    296.64558   -313.15821    104586.39   -28997.343    5337.2976    4938.2981    116518.92   -29000.346 
    2250    297.98912   -471.65568    102042.96   -29041.745    5361.4707    4825.4944    116595.99   -29046.283 
    2500      295.927   -170.71997    99762.242   -29212.082    5324.3688     4994.465     116260.9   -29216.221 
    2750    300.12315    202.60955    97574.448   -29350.858    5399.8665    5139.1312    115977.14   -29354.486 
    3000    294.24527   -153.24449    96652.688    -29301.14    5294.1108    4910.6819    116260.48   -29305.202 
    3250    306.76544   -3.1495917    95437.117   -29489.055    5519.3759    4984.1887    116003.12   -29493.234 
    3500    301.07418    33.407489    94973.088   -29474.092    5416.9776    4993.9321     116007.3   -29479.245 
    3750    304.69034    197.08164     94820.98   -29536.392    5482.0403    5069.9702    115870.77   -29541.367 
    4000    296.01454   -175.02193    95242.764   -29447.373    5325.9438    4979.4766    116049.13   -29455.256 
    4250    297.08708   -40.059996    94365.804    -29669.06    5345.2412    5044.5809    115756.01   -29675.332 
    4500    294.89497    9.3584616    94975.598   -29533.895    5305.8003    5052.2301    115884.63   -29541.279 
    4750    298.22866    261.71602    94136.387   -29653.413    5365.7806    5156.0116    115665.61   -29659.695 
    5000    299.80034   -146.22134    94378.922   -29740.936    5394.0585    5012.7341    115718.55   -29750.074 
    5250    294.57231   -313.34694    94217.546   -29682.993    5299.9949    4925.4865    115873.73   -29687.603 
    5500    296.35479    108.07819    93852.483   -29612.382    5332.0656    5047.2921    115806.56   -29618.198 
    5750    300.67084    425.15957    93538.579   -29793.307    5409.7207    5230.9466    115454.19    -29797.21 
    6000     304.5309   -74.646814    94810.539   -29610.071    5479.1715    5014.4694    115850.32    -29614.86 
    6250    298.70365   -140.55782    94365.768   -29539.655    5374.3267    4943.2677     116002.7   -29545.836 
    6500    300.96686    -205.7489    93928.637   -29667.368    5415.0468    4948.2057    115855.81   -29672.492 
    6750    296.93679    191.35246    93830.561    -29562.92    5342.5371    5061.3389    115843.88    -29567.26 
    7000    300.57312   -391.98724    94813.851   -29580.167    5407.9625      4878.84    116009.99   -29586.757 
    7250    301.09314   -35.774331    93995.294   -29657.356    5417.3188    5042.0857    115777.99   -29666.003 
    7500    297.60187   -19.160941    93722.535   -29645.752    5354.5032    5007.6847    115817.88    -29649.66 
    7750    301.25339    -31.55193     93800.26   -29789.918    5420.2021    5056.2162    115629.26   -29796.592 
    8000    303.16864    -409.5936    94808.616   -29779.167    5454.6615    4944.7407     115747.9   -29784.024 
    8250    299.90829   -38.114409    94176.608     -29755.8    5396.0009    5077.7051    115640.29   -29761.292 
    8500    302.70049    8.7968399    94062.995    -29537.47    5446.2385    4975.3276    115966.65   -29543.762 
    8750     301.2292   -240.61311    94645.514   -29648.635    5419.7669    4964.0387    115862.88   -29657.792 
    9000    303.43272    282.04952    94338.275   -29487.316    5459.4128    5082.8614    115895.26   -29496.458 
    9250    298.93081   -115.65431    94654.425   -29716.875    5378.4138    5012.2142    115744.09   -29724.212 
    9500    301.43024   -1.9799563     94326.92   -29501.333    5423.3839    4997.3612    115971.37   -29508.067 
    9750     294.9214    113.89471    94233.615   -29624.985    5306.2759    5089.4305    115758.58   -29629.891 
   10000    300.37991   -114.27558    94686.016   -29690.375    5404.4863    5072.1096    115701.08   -29698.179 
   10250    300.03598    -89.46981    94804.667    -29593.88    5398.2982    5026.7833    115848.68   -29602.664 
   10500    300.46299   -315.14647    95190.186   -29635.875    5405.9811    4994.8634    115841.35   -29644.212 
   10750    298.72096    321.56958    94643.689    -29727.36    5374.6381    5248.9291    115494.99   -29735.361 
   11000    299.76346   -28.683846    94603.822   -29845.172     5393.395    5135.3536     115494.3   -29852.018 
   11250    300.89293    -227.0674    94501.687   -29732.805    5413.7165    5001.0236    115739.68   -29740.613 
   11500     297.6889   -226.20498      94964.3   -29608.851    5356.0692    4984.5713    115877.89   -29614.078 
   11750    296.73659    186.99595     93539.25   -29617.716     5338.935    5045.2027    115810.63   -29625.852 
   12000    308.06938    317.36906    94398.507   -29597.512    5542.8365    5164.8486    115704.49   -29605.358 
   12250     298.5476    106.17276    94445.222   -29502.118    5371.5189    5054.5752    115907.09   -29511.205 
   12500    297.31501   -345.48915    93898.314   -29617.059    5349.3421    4903.7831    115945.89   -29629.634 
   12750    295.68884    177.61866    93197.918   -29656.689    5320.0838    5036.3367    115783.34   -29667.409 
   13000    306.69141    -42.76473    93878.667    -29537.66    5518.0437    4943.8268    115986.27   -29547.027 
   13250    303.80565   -83.071893     93670.78   -29716.674    5466.1228    5016.7423    115742.15   -29721.339 
   13500    300.20472    219.76448    93515.053   -29628.655    5401.3342    5069.2697    115776.36   -29638.507 
   13750    299.87404   -100.07535    94192.123   -29707.469    5395.3845    5026.4267    115740.96   -29714.792 
   14000    299.45822    171.52038    93910.656    -29923.92    5387.9031    5181.6555    115363.05   -29928.187 
   14250    302.06544   -261.93058    94405.262   -29789.449    5434.8126    5006.4842    115673.72   -29794.485 
   14500    302.56908    209.00202    93863.526   -29548.661    5443.8742    5044.4078    115881.53   -29554.949 
   14750    303.11573    364.00397    94230.115   -29516.608    5453.7096    5113.8354    115840.85   -29521.672 
   15000    305.67197   -28.224984     95119.28   -29627.514    5499.7019    5089.4816    115759.41   -29634.163 
   15250    300.78425    127.63965    94638.795    -29718.53    5411.7612    5167.6129    115587.26   -29725.756 
   15500    295.96719    80.339575    94579.086    -29505.06    5325.0919    4999.8708    115970.47   -29510.931 
   15750    296.72374    86.783421    94696.073   -29566.976    5338.7039    5090.0115     115810.3   -29574.679 
   16000    300.82487    200.35336    94463.989   -29622.654    5412.4921    5119.0586    115725.66   -29630.284 
   16250    301.09673    62.280456    94735.218   -29579.958    5417.3834    5071.6519    115830.28   -29584.102 
   16500    301.48939     282.3983    93583.569    -29760.62    5424.4482    5190.2951    115525.27   -29768.621 
   16750    296.66691    290.58671    93838.505   -29599.519    5337.6813    5125.8372    115748.03   -29606.211 
   17000    289.50468    232.07812    94070.866   -29713.609    5208.8173    5214.2485    115547.66   -29718.401 
   17250    299.86025   -331.03407    93989.645   -29807.579    5395.1364    4925.1479    115749.68    -29810.05 
   17500    299.34993   -311.17497    94225.187     -29639.3    5385.9547    4918.8884    115913.53   -29645.992 
   17750    299.83254   -271.63671    93356.642   -29736.485    5394.6379    4913.6059    115825.34   -29742.442 
   18000    299.23199   -108.90508    93275.534   -29848.289    5383.8326    5034.7373    115584.91   -29856.821 
   18250    301.74153    412.36893    94337.202   -29753.224    5428.9848    5278.0973    115446.54    -29758.76 
   18500    300.33982    176.95626    94255.051    -29539.84     5403.765    5064.9087    115860.36   -29548.411 
   18750    302.89236     117.3293    94074.721   -29787.405    5449.6906    5139.4356    115544.88   -29796.908 
   19000    300.35345   -253.15808    93793.028   -29669.942    5404.0101    4912.9371    115890.49   -29675.539 
   19250     299.9577   -294.97303    94258.492   -29585.543    5396.8898    4929.7813    115950.68   -29595.001 
   19500    296.51473    86.873759    94098.565   -29816.573    5334.9433    5146.3721    115509.94   -29822.122 
   19750    297.71721   -109.78619    94622.634    -29717.84    5356.5785    5035.2441    115711.88    -29723.56 
   20000    298.31349    124.35073    93676.494   -29764.343    5367.3069    5102.5627    115596.35    -29770.25 
   20250     297.2144   -259.72473    94361.265   -29615.103    5347.5319    4946.2676    115908.98   -29621.506 
   20500    299.14459    32.488623     94779.27   -29629.696    5382.2602    5072.8633    115773.32     -29635.2 
   20750    304.73514    344.93695    93572.429   -29614.544    5482.8462    5128.8933    115736.09   -29619.409 
   21000    300.57528   -25.321012    94234.246   -29766.585    5408.0014    5068.3496    115629.34   -29774.225 
   21250    303.30114   -160.24263    93893.554    -29689.14    5457.0456    4970.6476    115808.65   -29695.159 
   21500    302.94574    251.32068    93688.074   -29800.818    5450.6511    5147.9937    115521.73   -29808.161 
   21750    294.31244   -98.553918    94563.408   -29535.786    5295.3193    5008.2848     115924.1   -29541.949 
   22000    302.87078    116.71341    94101.693   -29724.885    5449.3023    5126.4755    115622.07   -29731.744 
   22250    301.03267    280.97515     94040.09   -29666.236    5416.2309    5128.2525    115675.83   -29671.967 
   22500    296.74418      177.947    93908.148   -29755.607    5339.0715    5166.6609     115554.6   -29762.014 
   22750     298.8211   -371.51859    94607.707   -29632.928    5376.4399    4918.3488    115924.29   -29639.332 
   23000     300.2389   -77.039033    94680.962   -29661.476    5401.9492    5040.0557    115774.38   -29665.625 
   23250    305.82078    55.736753    94459.758   -29591.484    5502.3792    5063.7686    115818.42   -29598.008 
   23500    303.87146    155.53461    94534.119   -29588.006    5467.3069    5093.2295    115783.62   -29593.909 
   23750    303.70712     389.7115    94235.586   -29693.139      5464.35    5248.8339    115534.46   -29698.576 
   24000    293.66403   -5.8472899    94324.263   -29701.023    5283.6531    5065.4132    115711.46   -29705.685 
   24250     303.4859  -0.70422479    94295.182   -29756.365    5460.3698    5094.2467    115616.19   -29762.153 
   24500    304.38721    1.0847081    94192.538   -29696.757    5476.5863    5037.1194    115743.53   -29702.553 
   24750    298.89747    85.950904    94325.604   -29707.817     5377.814    5125.4424    115644.05    -29713.44 
   25000    303.61674   -381.62474    95679.531   -29660.849    5462.7239    4957.8523    115852.28   -29666.946 
   25250    297.33273   -189.63657    94630.221    -29757.06    5349.6608    5040.1578    115676.22   -29763.387 
   25500    300.44843   -141.94807    93979.147   -29716.152    5405.7191    4987.3479    115772.09   -29721.884 
   25750    303.15896    182.39715    94257.515   -29635.821    5454.4875    5097.6129    115734.99   -29642.512 
   26000     300.8522    40.641716    94344.659   -29729.558    5412.9837    5090.6517    115646.25   -29735.529 
   26250    294.56541   -429.90709    94944.038   -29634.693    5299.8708    4918.1692    115921.01   -29638.811 
   26500    299.33719   -219.79755    94217.513   -29569.618    5385.7254    4911.9238    115992.57   -29574.844 
   26750    305.28672    203.76426    94049.109   -29715.159    5492.7705    5142.6532    115607.53   -29722.366 
   27000    309.89121   -348.12524    94587.249   -29648.381    5575.6151    4897.3155    115927.18   -29654.365 
   27250    299.91692    113.41773    94161.997   -29638.183     5396.156     5091.338     115743.3   -29644.493 
   27500     300.0238   -141.11682    94619.337   -29582.356     5398.079    4956.6401    115932.98   -29588.447 
   27750    306.90367    472.44311    93963.393   -29635.753    5521.8628    5203.1461     115638.9   -29640.797 
   28000    300.27412   -77.344404    94298.079   -29614.706    5402.5829     5002.824    115851.36   -29621.486 
   28250    302.37387   -436.84856     94021.07   -29662.515    5440.3619    4904.0245    115915.06   -29669.537 
   28500    292.69467     -182.667    93730.296   -29814.102    5266.2121    5009.0012     115643.1   -29823.942 
   28750    294.89233   -92.859446     94460.52   -29675.651    5305.7527    5047.9066    115745.82   -29681.876 
   29000    298.16783   -52.933947    94967.532   -29564.299    5364.6861    5024.2926    115883.93   -29567.939 
   29250    302.98064    461.04188    94006.639   -29765.553    5451.2791     5280.884       115422   -29771.387 
   29500    302.58181    153.38182    94017.518   -29727.698    5444.1033    5118.5157     115641.9   -29732.585 
   29750     297.4936    216.01565    94018.519   -29638.692    5352.5553    5116.9291    115717.86   -29641.555 
   30000    300.60242   -543.06408    94782.698   -29461.036    5408.4896    4763.5931    116245.22   -29464.732 
   30250    294.12093    534.33264    93144.511   -29759.782    5291.8737    5208.0098    115503.95   -29766.042 
   30500    297.42818    253.37828    93978.083   -29692.763    5351.3782    5162.5907    115622.66   -29698.789 
   30750    303.01017   -180.41092    94854.885   -29756.853    5451.8103    5065.2194    115649.96   -29763.836 
   31000    300.15287    74.974115    94152.721    -29805.97    5400.4013    5157.3952     115512.4   -29811.556 
   31250    301.91629   -55.449632    94233.728   -29621.849    5432.1291    4970.6536    115878.82   -29627.611 
   31500    301.88453    56.604142    93942.023   -29847.098    5431.5576     5100.379    115526.02   -29855.147 
   31750    302.03022    -60.03086    94465.091   -29705.032    5434.1788    5059.9296    115705.92   -29711.726 
   32000    297.53822   -328.72816    94331.938   -29516.294     5353.358     4865.828    116084.87   -29522.902 
   32250    301.06547     179.7891    93067.054   -29724.915     5416.821     5085.646    115669.41   -29728.732 
   32500    298.96942    431.26396    92726.338   -29759.769    5379.1085     5119.801    115593.56   -29765.829 
   32750    298.06841   -483.77698    94141.398   -29591.222    5362.8973    4808.6856    116072.19   -29597.577 
   33000    300.25564   -101.01169     94344.53    -29624.51    5402.2504    4998.4719    115866.21   -29628.809 
   33250    302.30311    293.16154    94285.739   -29622.637    5439.0888    5114.9926    115738.38   -29626.847 
   33500    300.66172   -191.19388    95234.824   -29554.423    5409.5565    4972.6675    115942.94   -29559.315 
   33750    305.83328    -20.55849    94327.031   -29617.599    5502.6042    5018.9448    115832.46   -29623.196 
   34000     299.2292    272.72378     93781.06   -29661.322    5383.7825    5135.7544    115664.32   -29665.992 
   34250    296.03556    100.10498    94555.206     -29628.8     5326.322    5088.9968    115754.07   -29633.902 
   34500    303.71268    142.27305    95064.651   -29680.106    5464.4499    5149.6737    115646.65   -29686.419 
   34750    297.33028    -13.05094    94691.946   -29652.454    5349.6168    5081.9819    115731.31   -29659.961 
   35000    299.16298    267.89651    93504.548   -29839.753    5382.5911     5143.031    115484.42   -29845.469 
   35250    304.54475   -244.21582    94629.731   -29695.775    5479.4208    4977.8522    115805.51   -29702.638 
   35500     302.3818   -17.752104    94499.132   -29587.177    5440.5046    5024.9047    115868.66   -29592.261 
   35750    299.60049    283.02548    93917.536   -29629.681    5390.4628    5143.0827    115706.62   -29635.469 
   36000    293.01908    83.146647    94474.195   -29620.882    5272.0489    5062.8733    115793.76   -29626.875 
   36250    301.33891   -372.89635    94539.521   -29670.429    5421.7408    4935.1075    115861.06   -29675.762 
   36500    305.45268     703.0136    93629.383   -29535.694    5495.7563    5225.5329    115707.68    -29543.73 
   36750    293.17092   -135.42876    94830.261   -29641.206    5274.7809    5034.9171    115796.56   -29644.881 
   37000     294.4147     171.7851    93898.177   -29652.471    5297.1591     5104.549    115711.26   -29660.945 
   37250    301.05998    141.32294    93811.005   -29714.375    5416.7222    5109.4809    115654.36   -29718.027 
   37500    300.79418   -365.66571    94578.753   -29408.376    5411.9399    4812.2774    116252.61   -29413.648 
   37750    301.44735   -157.72159    93795.673   -29720.847    5423.6919    4977.6802    115766.49   -29727.825 
   38000    297.32181    136.92162     94373.64   -29616.326    5349.4644    5129.2623    115727.27   -29621.498 
   38250    297.95558   -297.90396     94350.79   -29624.863    5360.8674    4898.1417    115958.45   -29629.898 
   38500    301.32756    235.07544    93735.402   -29709.698    5421.5366    5116.0534    115645.05   -29714.516 
   38750     302.8568    182.50801    94185.979   -29617.568    5449.0509    5112.1167    115736.51   -29622.774 
   39000    295.05453    29.234625    94234.157   -29595.893    5308.6712    5070.4347     115804.6   -29601.805 
   39250    306.85123    138.72348    94346.749   -29730.981    5520.9194    5107.9154    115636.85   -29736.909 
   39500    301.84218    488.83352    94007.217   -29599.321    5430.7956    5173.9631    115702.29    -29607.21 
   39750    300.24314    192.49372    93734.072   -29510.196    5402.0255    4992.0709     115959.9    -29518.47 
   40000    305.15505    141.33296    93462.519   -29620.547    5490.4014    5032.6153    115816.93   -29627.751 
   40250    296.01622    234.60188    92964.384   -29743.263     5325.974    5109.5755    115616.54   -29750.431 
   40500    300.54622   -134.78849    94369.145   -29690.396    5407.4785    5036.1571    115743.72   -29696.958 
   40750    307.50934    252.04126    94049.993   -29825.236    5532.7602    5194.6729     115459.2   -29829.849 
   41000    302.68428    81.415035    93588.274    -29695.35    5445.9469    5050.0555    115727.44   -29701.099 
   41250    299.39786    275.62282    94461.644   -29619.952     5386.817      5155.57    115698.41    -29625.81 
   41500    302.66822    9.5069656    94725.081   -29595.144     5445.658    5045.9422     115829.6   -29604.317 
   41750    298.09794    -348.9028    94499.064   -29662.451    5363.4286    4939.7423     115868.8   -29668.514 
   42000    299.56558    65.179742    93916.354   -29576.655    5389.8347    5008.9824    115889.16   -29583.115 
   42250    302.90774    31.408233    93509.656   -29704.692    5449.9674     5037.369    115736.86   -29709.807 
   42500    298.33532   -138.49444    93704.098   -29673.911    5367.6996    4967.1615    115831.78   -29681.404 
   42750     301.9787    148.32179    94295.751   -29673.126     5433.252    5112.6301    115690.67   -29679.128 
   43000     301.9108   -172.03663    94340.516   -29718.544    5432.0303    5002.6195    115755.11   -29723.556 
   43250    303.49833    -254.8282    94754.193   -29634.441    5460.5933    4952.7077    115889.87   -29641.141 
   43500    307.88724   -289.81403    94760.395   -29681.738    5539.5594    4942.2273    115845.85   -29687.897 
   43750    296.92565    360.85879    94465.981   -29608.611    5342.3365    5196.0449       115663   -29614.849 
   44000    299.22129    47.439091    94589.942   -29558.901    5383.6401    5033.1509    115878.68   -29566.732 
   44250    297.05481   -352.88531    94657.939     -29633.4    5344.6605    4912.4317    115925.07   -29640.396 
   44500    302.25839   -85.786769     94463.92   -29620.769    5438.2841    5004.4222    115847.99   -29626.628 
   44750    302.87508    97.334857    93797.117   -29790.763    5449.3797    5099.6421     115580.6   -29796.859 
   45000    300.94715    71.668635    94224.344   -29577.482    5414.6921    5047.3252    115851.17   -29580.714 
   45250    300.96186   -246.93594     94496.23    -29640.29    5414.9568    4957.6286    115886.75    -29645.48 
   45500    297.87076   -568.86671    94585.726    -29632.42    5359.3413    4798.9719    116051.65   -29636.702 
   45750    302.93009   -23.671939     94305.47   -29709.452    5450.3695    5043.1701    115729.95   -29712.721 
   46000    303.04009   -91.178846     95266.62    -29505.99    5452.3486       4990.4    115969.89   -29508.386 
   46250    305.26628    13.477711    93997.833    -29780.64    5492.4026    5119.0578    115576.14   -29785.802 
   46500    297.92404    335.97756    94305.784   -29688.227    5360.2999    5217.2267    115560.33   -29692.833 
   46750    301.71688   -63.791902    93872.098    -29513.95    5428.5412    4927.9279    116024.23   -29517.421 
   47000    299.13335    60.399715      94044.4   -29571.213     5382.058    5029.1331    115866.35   -29578.191 
   47250    299.08421    33.590257    94513.753   -29770.266    5381.1737    5106.9829     115603.6   -29777.127 
   47500    300.06382   -235.81394    93987.515   -29773.284    5398.7991    4984.4833    115715.43   -29779.157 
   47750    295.36703    14.368427     93535.18   -29694.293    5314.2937    5023.9544    115762.54   -29700.141 
   48000    292.73274   -87.139579    94628.325    -29492.09     5266.897    4974.0623    116006.63   -29497.286 
   48250    304.50327   -139.14388    94473.376   -29708.317    5478.6745    5011.9517    115749.95   -29716.927 
   48500    297.72045   -101.07533    94802.749   -29434.809    5356.6367    4971.4697    116062.99   -29440.004 
   48750    297.08845    65.466015     94199.04   -29602.009    5345.2657    5035.4415    115822.73   -29607.377 
   49000    298.69439    258.34787    93448.359   -29714.935    5374.1601    5148.5706    115610.58   -29721.743 
   49250    296.77727    212.96329    93724.469    -29584.87    5339.6669    5102.0882    115780.75   -29589.624 
   49500    300.67453   -146.58688    94328.484   -29600.134     5409.787    4963.9612    115905.04   -29605.756 
   49750    303.39047    312.61415    93631.152   -29692.654    5458.6527    5168.4277     115615.2   -29697.771 
   50000    301.51171    255.53759    94118.662   -29746.688    5424.8499    5146.2336    115580.62    -29751.97 
   50250    302.32819   -288.90596     95000.37   -29603.288      5439.54    4953.1269    115922.48    -29607.73 
   50500    298.10364    113.13712    95089.581   -29602.436    5363.5312    5133.9417    115737.97   -29608.224 
   50750    293.71894   -52.214149    94550.008   -29599.686    5284.6409    5006.7281    115865.57   -29604.624 
   51000     299.7798    40.844656      94010.4   -29646.673     5393.689     5075.924     115755.9   -29652.136 
   51250    300.05491   -265.17094    94359.825   -29625.591    5398.6388    4937.5551    115908.09   -29630.178 
   51500    294.62812    164.87609    93798.229   -29689.018     5300.999    5092.0655    115689.45   -29695.147 
   51750    300.12272    162.18696    93852.698   -29573.748    5399.8588    5080.0298    115815.77   -29579.336 
   52000    304.76521    419.02808    94024.231   -29520.509    5483.3873    5124.6645    115831.69   -29525.105 
   52250    301.49094     44.70781    94640.041   -29652.538    5424.4761    5119.5841    115701.09   -29657.648 
   52500    300.03961   -113.50913    94092.747    -29508.69    5398.3635    4929.2759    116037.21   -29515.045 
   52750     298.8008    183.91769    93827.139   -29599.921    5376.0747    5089.9004    115783.34   -29606.764 
   53000    303.71733    438.09605    93189.773    -29682.05    5464.5337    5170.4159    115620.64    -29688.21 
   53250    298.90469    142.30352    93884.734   -29550.136    5377.9438    5066.9688    115848.25   -29555.744 
   53500    302.50721   -202.27887    94903.257   -29576.788     5442.761    4965.6415    115920.36   -29585.559 
   53750    300.40288    309.31297     94435.66   -29607.004    5404.8996    5156.5937    115706.26   -29613.098 
   54000    298.82164    279.08633    94374.146   -29709.712    5376.4496    5192.5848    115571.77   -29716.414 
   54250    297.50096    80.205898    93558.869   -29680.929    5352.6877    5026.2054    115765.76   -29687.815 
   54500     305.9426   -321.47927    94356.015   -29688.157     5504.571     4952.401    115834.57   -29692.937 
   54750    301.33852   -239.06253    94108.228   -29785.172    5421.7337    4988.8374    115698.62    -29788.93 
   55000    297.51127    225.36153    93125.666    -29789.78    5352.8732    5127.0719    115560.31   -29793.329 
   55250      300.145   -176.04144    93875.301   -29654.744    5400.2597    4943.2343    115875.48   -29660.104 
   55500    301.41202    102.83753    94539.591   -29711.165    5423.0561    5128.4772     115639.8   -29715.538 
   55750    300.65873    131.80634    94629.303   -29797.095    5409.5028    5171.3359    115498.23   -29805.071 
   56000     304.4408   -182.11511    94475.165   -29703.755    5477.5505    4975.3518    115785.62   -29708.973 
   56250    301.79693   -34.611666    94158.715   -29737.143    5429.9815    5060.5001    115674.76   -29742.476 
   56500    302.93053   -321.00709    94792.671   -29464.948    5450.3774    4881.9474     116132.4   -29472.363 
   56750     300.5469    -268.6991    94932.586   -29517.978    5407.4908    4953.8814    115997.15   -29524.182 
   57000    303.01862    72.417755    94279.948   -29741.948    5451.9624    5049.1895    115671.66   -29752.815 
   57250    297.91301   -4.7684137     94114.16   -29650.913    5360.1013    5037.6416    115791.92   -29654.896 
   57500     299.1572   -267.73903     94788.95   -29639.834     5382.487    4965.5556    115867.62    -29646.88 
   57750    296.18026    -77.49014    94142.449   -29633.308    5328.9255    4995.5973    115849.41   -29638.886 
   58000    296.01853   -163.91347    94141.429   -29839.833    5326.0156    5057.4377    115572.24   -29843.719 
   58250    298.54387   -99.110608    94681.855   -29584.136    5371.4518    4992.7824     115886.2   -29589.317 
   58500      299.359   -224.60626    95224.949   -29591.718    5386.1178    5016.1319    115863.74   -29599.046 
   58750    300.24402    219.14869    93629.853   -29646.876    5402.0412    5059.8516    115763.61   -29652.792 
   59000    299.40784    246.56433    93793.638    -29609.66    5386.9966    5138.1242    115722.65   -29616.293 
   59250    303.91306    206.73185    94052.687   -29470.628    5468.0553    5039.2851    115953.73   -29475.713 
   59500    297.82952   -102.74629     93566.56   -29675.787    5358.5992    4940.5397    115856.99   -29680.088 
   59750    300.12556    6.8096182    93196.887    -29700.89    5399.9099    5004.6628    115758.47   -29710.013 
   60000    302.21864   -203.29817    93488.122   -29572.738     5437.569    4863.3037    116024.49   -29582.905 
   60250    297.72415     166.0714    94758.884   -29513.563    5356.7033    5127.5249    115834.86   -29521.572 
   60500    298.24296   -184.56663    94845.365    -29733.51    5366.0379    5056.2575    115680.69    -29741.78 
   60750    300.67391   -127.25511     94954.47    -29610.14    5409.7759     5017.243    115839.61   -29618.509 
   61000    298.07958   -92.015091    94625.789   -29486.542    5363.0984    4993.9654    115988.78   -29493.869 
   61250    296.25822    -185.9487    94152.345   -29603.649    5330.3282    4958.9559    115914.67       -29610 
   61500    304.10566   -37.403428    93813.016   -29703.559    5471.5206    5000.7696    115774.95    -29708.18 
   61750    302.19323   -127.74101    94429.821   -29520.309    5437.1119    4936.2676    116012.83   -29526.538 
   62000    300.41989    271.70769    94537.498   -29501.396    5405.2055    5094.3077    115871.13   -29509.321 
   62250    300.69608    -384.1855    95133.043   -29638.336    5410.1749    4927.6958       115907    -29648.94 
   62500    295.89189    106.60073    94144.486   -29569.688    5323.7369    5042.6915    115858.35   -29575.527 
   62750    293.76667   -102.33903    94663.157   -29535.186    5285.4997    4972.7329    115959.62   -29539.642 
   63000     299.1194    32.925669    93886.702   -29695.935    5381.8069    5008.4683    115767.69   -29700.204 
   63250    300.99641   -48.285346    93971.387   -29703.491    5415.5785    5041.3251    115727.95   -29707.856 
   63500    296.27333   -65.315291    94587.058    -29701.85       5330.6    5067.4738    115699.18   -29706.114 
   63750    297.74836   -130.47879    94142.955   -29770.419     5357.139    5010.7376    115695.61   -29775.921 
   64000    298.62622   -27.518288    93626.459   -29728.303    5372.9336    5031.4245    115721.59   -29734.685 
   64250    301.08039    56.370515    94296.347   -29498.255    5417.0894     5035.771    115940.77   -29502.973 
   64500    297.17842   -179.69125    94575.141    -29427.79    5346.8844    4885.8641    116159.09   -29432.416 
   64750     298.7456    263.34286    93266.558   -29763.148    5375.0814    5114.0023    115602.54   -29767.658 
   65000    295.87192    21.224462    94112.861   -29607.726    5323.3778    5029.1253    115838.32   -29612.179 
   65250    300.66818    167.53617    93826.312   -29711.833    5409.6728     5108.848    115653.83   -29717.148 
   65500    298.08151   -231.77696    94241.631   -29498.528    5363.1331     4898.841    116070.46   -29503.928 
   65750    298.22691   -162.00173    94091.803   -29598.339    5365.7491    4963.0517    115907.96   -29604.572 
   66000    301.37255   -90.439709    93874.837     -29827.5    5422.3459    5033.5949     115613.7   -29833.352 
   66250    294.18725    231.21612    93954.107   -29728.844    5293.0668    5179.1097    115568.06   -29734.474 
   66500    297.31196   -328.28945    94311.014   -29660.357    5349.2871    4920.5778    115898.69   -29666.706 
   66750    298.97605   -54.679731    94394.421   -29662.828    5379.2278    5011.0503    115804.21   -29668.967 
   67000    298.32398   -140.19157    95469.634   -29589.584    5367.4957    5058.8178    115822.08   -29597.994 
   67250    301.72343    192.18467    94517.773   -29676.639     5428.659    5111.8727    115675.48   -29686.154 
   67500    298.77636    2.0220551    94144.642   -29721.932    5375.6349     5056.033    115700.48   -29729.092 
   67750    296.03549    113.27138      94680.6   -29701.051    5326.3207    5134.1633    115632.34   -29707.753 
   68000    302.04181    323.51745    94373.201   -29587.848    5434.3874    5155.9828     115728.9   -29597.761 
   68250    297.92909    238.94343    94278.896   -29618.648    5360.3907    5143.4812    115698.19   -29631.641 
   68500    306.02721   -326.21537    94567.656   -29668.357    5506.0935    4948.6795    115848.94   -29680.621 
   68750    304.54849    198.69201    93719.916   -29708.686    5479.4881    5060.4266    115707.09   -29715.631 
   69000    298.83309    88.557442    94443.517   -29626.737    5376.6557    5143.5108     115689.3   -29636.823 
   69250    296.26363   -51.874919    94609.257   -29658.029    5330.4254    5051.0247     115757.5   -29667.743 
   69500    298.38377   -84.969662     94155.94   -29639.537    5368.5714    4973.6826    115863.76   -29648.637 
   69750     299.9091    65.870926    94110.652   -29650.704    5396.0154    5063.0552    115755.94   -29660.289 
   70000    304.08635   -60.707431    94087.741   -29699.202    5471.1731    5028.2687    115755.48   -29710.252 
   70250    302.52841      74.3015    93762.218   -29639.691    5443.1425    5011.5623    115827.57   -29647.092 
   70500    294.96825    135.23235    93510.957   -29679.235    5307.1188    5074.6381    115717.15   -29689.882 
   70750    293.42911   -168.00268    94606.357   -29600.304    5279.4263    4986.3838    115881.53   -29611.958 
   71000    298.64257   -188.13277    94923.499   -29618.157    5373.2277    4971.2524    115891.29   -29627.934 
   71250    298.23651    83.117472    94622.737   -29579.683    5365.9218    5075.0291    115806.63    -29592.74 
   71500    299.15012    66.480993    94598.607    -29630.14    5382.3596    5073.0012    115756.06   -29643.447 
   71750    298.63638   -184.48165    94914.453   -29592.403    5373.1164    4969.4822    115907.22   -29598.508 
   72000     301.8664    116.23075     94044.36   -29732.573    5431.2315     5066.868    115679.03   -29742.314 
   72250    296.46035    68.851297    94068.151   -29490.726    5333.9648    5007.1679    115975.59   -29499.953 
   72500    296.87888     35.37776    93283.688   -29832.041    5341.4952    5098.8353    115541.95   -29841.439 
   72750    303.39298   -312.54971    94187.231   -29509.844    5458.6979    4837.6611    116120.61   -29516.656 
   73000    300.71747   -76.689124    93983.346   -29601.767    5410.5597    4965.2587    115899.18   -29611.984 
   73250    301.74255    240.92285    92971.168   -29745.214     5429.003    5090.5095    115636.36   -29750.101 
   73500    302.23712    99.383943    93778.304   -29713.499    5437.9014    5082.6581     115666.2   -29721.663 
   73750    299.55576    160.10951     93433.15   -29558.099     5389.658     4990.036    115924.98   -29565.744 
   74000    298.14794   -83.202232    94412.612   -29591.338    5364.3282    4996.4598    115879.79   -29596.827 
   74250    296.67791    266.90193    94688.755   -29676.111    5337.8792    5204.7741    115586.96   -29682.409 
   74500    299.96289    400.91866    94083.576   -29579.566    5396.9831    5164.9933    115725.36   -29587.818 
   74750     296.5082   -448.09475    94377.776   -29569.654    5334.8257    4865.4845    116038.29   -29574.229 
   75000    298.40452   -22.175001    93885.472   -29637.514    5368.9448     5003.385    115833.57    -29644.24 
   75250     304.2844   -402.93755    94564.459   -29629.483    5474.7365    4872.6427    115966.18   -29636.334 
   75500    296.63402     20.25625    93888.255   -29701.662    5337.0896    5045.7225    115726.31   -29710.429 
   75750    302.60368   -215.48215    94991.169   -29521.072    5444.4966    4942.7569    116006.82   -29527.299 
   76000    297.39864    192.75991    93853.762   -29630.792    5350.8468    5097.0064     115745.7   -29637.104 
   76250    301.86508   -285.59374    93666.789   -29628.015    5431.2078    4882.3485    115962.61   -29634.887 
   76500    301.50702     138.0802    93502.896   -29715.497    5424.7654    5058.9463    115699.05   -29722.031 
   76750      299.875    -18.13815    95438.761    -29522.23    5395.4019    5068.2344    115881.99   -29528.088 
   77000    297.27588    123.73158    95245.435    -29542.61     5348.638    5129.1961     115805.5   -29548.929 
   77250    303.20527    210.51907    94517.372   -29694.612    5455.3206    5204.8862    115571.45   -29701.161 
   77500    303.01117   -130.28875    94693.701   -29542.705    5451.8283    4992.1221    115932.12   -29552.207 
   77750    304.15943    354.46253     94062.48   -29638.013    5472.4881    5166.5539    115675.37   -29644.414 
   78000    300.68398   -243.81007    94563.136   -29537.165    5409.9571    4904.6668    116023.54   -29543.173 
   78250    300.77731    405.54736    94403.818   -29479.362    5411.6364    5115.7923    115863.83   -29489.175 
   78500    301.37033    28.267276    94143.447   -29553.048     5422.306    5018.0941    115901.05    -29558.84 
   78750    303.77326    152.63022    94254.166   -29708.096    5465.5399     5112.758     115646.2   -29714.077 
   79000    305.75956    135.97263    94866.933   -29588.696    5501.2778    5108.7064    115772.51   -29595.787 
   79250    303.62695   -154.93802    95201.118   -29623.435    5462.9075    5036.2688    115808.21   -29634.342 
   79500    301.19398    50.001457    94437.306   -29653.727    5419.1332    5091.3873    115725.55   -29659.064 
   79750    305.20395   -240.47981    94266.866   -29622.195    5491.2812    4900.2212    115943.34   -29628.785 
   80000    295.09981     120.2967     94046.48    -29626.85    5309.4858     5093.562    115734.49   -29637.304 
   80250    299.11065     121.7857    93819.666   -29788.906    5381.6495    5104.0375    115565.85   -29798.609 
   80500    304.92917    116.28165     94435.81   -29597.622    5486.3374    5065.3069    115805.72   -29605.035 
   80750     293.9479    29.077007    94735.848   -29768.043    5288.7604    5132.8558    115568.67   -29777.864 
   81000    300.47924    381.51267    94359.977   -29577.701    5406.2734    5171.5557    115716.25   -29586.592 
   81250    298.56515   -79.118806    94688.568   -29643.508    5371.8347    5033.8252       115796   -29651.753 
   81500    295.55059    596.67387    94394.814   -29690.065    5317.5963    5339.2933    115437.01    -29700.79 
   81750    301.20064   -165.36179    94905.946   -29724.968     5419.253    5060.9461     115678.7   -29737.273 
   82000    298.10108    31.485505    94026.765   -29800.363    5363.4852     5136.237    115527.06   -29811.597 
   82250     304.9999    -73.72603    94211.648   -29704.219      5487.61    5051.7629    115714.59   -29714.949 
   82500    300.72977    85.968877    94132.311    -29666.92    5410.7809     5056.453     115750.9   -29675.165 
   82750    303.58189   -118.19947    94331.626   -29819.985    5462.0969    5073.8317    115573.82    -29828.43 
   83000    300.79062   -151.96634    94386.395   -29691.953    5411.8758    5002.1873    115779.46    -29699.26 
   83250    301.22551    193.79146     93968.08    -29647.47    5419.7004    5091.6045    115733.69   -29655.599 
   83500    301.92572    386.95706     94770.49   -29643.728    5432.2987    5235.6161    115579.45   -29654.572 
   83750    299.67916    187.94544    93977.957   -29635.715    5391.8782    5134.9372     115702.3   -29645.158 
   84000      296.875   -35.725674    94072.541   -29671.831    5341.4252    5044.1897    115751.84   -29679.339 
   84250    297.40329   -511.67181    94565.194   -29681.392    5350.9303    4862.3482    115925.27   -29688.912 
   84500    300.11985    16.199004    93606.996   -29754.347    5399.8072    5049.2854     115668.7   -29761.155 
   84750    294.50903   -439.75515    94039.617   -29789.589    5298.8564    4936.4522    115740.18   -29798.388 
   85000    297.46591     -49.5486    93882.083   -29654.087     5352.057    4999.5657     115816.3   -29659.421 
   85250    300.11059     -193.133    94422.713   -29581.933    5399.6405    4948.1638    115951.07   -29589.942 
   85500    299.57384    220.05933    94302.793   -29636.224    5389.9834    5145.7702    115691.23    -29643.44 
   85750     296.5768   -57.924586    94864.057   -29567.009      5336.06    5037.8186     115872.9   -29570.984 
   86000     303.8338     194.0094    94124.507   -29470.065    5466.6293    5026.1317    115974.96   -29475.478 
   86250    296.99025   -165.57206    94520.407    -29500.91    5343.4989     4951.794    116004.23   -29508.908 
   86500    298.73309   -25.319782    93958.543   -29708.011    5374.8564    5015.8966    115747.79    -29716.64 
   86750    300.12852    54.315995    93913.524   -29684.423    5399.9633    5055.1517    115734.01   -29692.381 
   87000    304.44715    191.94571    94376.319   -29603.439    5477.6648    5120.4524    115739.83   -29611.151 
   87250    300.00613   -189.31693    94780.627   -29613.699    5397.7611    4967.4117    115889.24   -29622.175 
   87500    300.74591    78.417228    93461.863   -29674.464    5411.0713     5023.926    115772.61    -29680.41 
   87750    298.76058    54.142698     93572.55   -29705.501    5375.3509    5046.1927    115721.92   -29713.402 
   88000    301.37714   -69.210789    94507.122   -29548.337    5422.4285    4996.5854    115931.27   -29554.992 
   88250    304.64333    142.83965    94477.604   -29589.559    5481.1945    5095.2787    115791.65   -29594.218 
   88500    298.39719   -342.15538    94448.324    -29662.36    5368.8129    4901.3925    115912.19   -29666.516 
   88750    302.62512   -151.45188    94523.438   -29729.617    5444.8825    5014.8021    115727.82   -29735.834 
   89000    297.43262    266.11265    93716.483   -29643.606     5351.458    5131.4526    115696.42   -29652.453 
   89250     300.3145   -417.63146    94655.692   -29616.129    5403.3093    4877.8919    115978.18   -29623.143 
   89500    299.90539   -200.86386    93900.174   -29544.237    5395.9486    4885.1356     116032.2   -29552.183 
   89750    301.18478    514.38809    93272.518   -29667.809    5418.9675    5210.0996    115593.58   -29675.713 
   90000    298.04459   -109.13406    94462.331   -29540.126    5362.4689    4957.5204    115980.79   -29545.382 
   90250    302.14283    189.90522    93812.797   -29676.934    5436.2049    5104.0038    115690.89   -29684.082 
   90500    304.43748    140.90301    94303.934   -29635.175    5477.4908    5085.5344    115752.21   -29641.055 
   90750    304.38878    361.02218     94258.72   -29656.624    5476.6146    5197.0655    115617.28   -29661.229 
   91000     305.9524   -176.16284    94639.623   -29531.589    5504.7475    4945.8109    115991.57    -29537.93 
   91250    301.63601    91.069017    93845.115   -29728.055    5427.0862    5080.9745    115656.94   -29734.101 
   91500    302.48617     89.82082    93368.042   -29571.057    5442.3824    4956.7964    115934.96   -29578.889 
   91750    302.27381   -234.37823     94181.94   -29583.611    5438.5617    4916.1816    115979.09   -29589.242 
   92000    298.79924   -349.47501    94702.545   -29722.211    5376.0465    4946.5676    115798.55    -29729.87 
   92250    301.33714    46.160718    95092.479   -29713.546    5421.7089    5123.1531    115638.13   -29719.246 
   92500    299.10361   -51.273263    94929.392   -29598.344    5381.5228    5038.2229    115830.98   -29604.612 
   92750    300.05043    103.79995    94498.397   -29671.832    5398.5581    5117.4537    115683.09   -29676.133 
   93000    295.60691    31.627709    94189.703   -29636.155    5318.6096    5017.5562    115811.66   -29643.667 
   93250    303.45139    88.969428    94119.627   -29690.511    5459.7487    5076.4161    115707.21   -29695.644 
   93500    299.60355    97.572945    94444.642   -29637.667    5390.5178    5074.4323    115760.13   -29642.776 
   93750    303.88147    386.82462    94150.182   -29594.267    5467.4869    5169.1013    115722.61   -29599.433 
   94000    297.89477   -246.36625    93643.596   -29780.821    5359.7733    4976.5665    115706.49   -29792.024 
   94250    302.21155   -247.13499     94262.93   -29529.995    5437.4414    4879.0002    116068.25   -29536.463 
   94500     297.4266    -134.2268      93947.5   -29732.928    5351.3497    5007.0149     115734.1   -29740.979 
   94750    301.55076    263.00903    92566.013    -29798.37    5425.5523    5099.7716    115577.43   -29806.378 
   95000    299.29806   -232.53134    93137.723   -29686.812    5385.0213    4907.7518    115880.89   -29694.739 
   95250    294.33734    183.64302     92922.54   -29755.403    5295.7673    5070.3974     115646.6   -29763.729 
   95500    296.70254   -357.69938     94291.13   -29529.525    5338.3224    4886.2451    116054.55   -29535.535 
   95750     296.3716   -5.4271185    94162.848   -29664.458    5332.3681    5034.9868    115785.24   -29667.589 
   96000    301.35125    316.88199      93915.6   -29581.042    5421.9628    5124.0878    115774.09   -29587.603 
   96250    296.71887   -466.11279    94352.433   -29675.719    5338.6162    4861.8367    115937.63   -29679.397 
   96500    300.12468   -70.418059    94362.655   -29584.011    5399.8941     5005.902    115879.07   -29588.581 
   96750    302.68764    351.71333    94675.919   -29658.795    5446.0073    5226.0599    115586.85   -29665.456 
   97000    297.63838     -4.65465    94061.455   -29749.505    5355.1603    5067.1368    115660.75   -29751.388 
   97250    300.13339   -210.69657    94201.008   -29566.157    5400.0509    4897.7685    116004.08   -29573.048 
   97500    299.70118   -83.949481     94234.13   -29684.731    5392.2745    5020.1989    115774.74   -29688.126 
   97750    297.23951   -161.91412    94393.965   -29697.313    5347.9837    4997.9117    115771.49   -29701.792 
   98000    301.73262    349.82828    93767.178   -29596.109    5428.8245    5103.4733     115771.3   -29603.934 
   98250    305.79835   -374.42757    95034.635   -29705.152    5501.9757    4948.8915    115821.42   -29710.736 
   98500     299.4559    3.0731296    95189.183    -29502.42    5387.8612    5029.7161    115937.17    -29507.28 
   98750    298.65834    314.25931     94140.71   -29676.108    5373.5114    5160.2226    115646.73   -29681.709 
   99000     297.5893    121.67452    93584.294   -29646.661    5354.2771    5035.7512    115793.02    -29654.58 
   99250    301.78037   -404.00343    94048.751   -29680.533    5429.6835    4898.3401    115889.43   -29690.665 
   99500    299.47788    35.248755    94364.371   -29342.643    5388.2568    4957.2175    116175.64   -29349.283 
   99750    300.06715     176.7551    94415.788   -29598.711     5398.859    5110.9073    115757.21   -29607.001 
  100000    300.26664   -195.17624    94126.055   -29503.495    5402.4482    4896.6735    116073.03   -29510.195 
  100250    297.97133    209.86616    93155.019   -29709.659    5361.1507    5053.7776    115713.04   -29716.578 
  100500    302.77465    28.506138    94872.661   -29404.924    5447.5727    4970.5576    116094.54   -29413.495 
  100750    305.02214    242.72834    94561.812   -29593.365      5488.01    5132.0408    115739.41    -29603.55 
  101000    302.01906    190.55921    94841.938   -29499.624     5433.978    5104.2101    115857.24   -29509.998 
  101250    299.09091   -195.00185    94647.322   -29683.902    5381.2943    4991.0836    115804.27   -29688.892 
  101500    301.63863   -153.74246    94392.243    -29475.11    5427.1333    4888.6174    116105.98   -29480.619 
  101750    298.71401   -319.68144    94789.217   -29595.415     5374.513    4906.8724     115958.3   -29609.569 
  102000    301.12708    425.77769    94324.009   -29743.609    5417.9294    5249.3302     115479.9   -29750.844 
  102250    299.75175    264.40002     94705.33   -29683.903    5393.1843    5199.2635    115595.09   -29691.982 
  102500    302.70755    45.248066    94439.346   -29586.384    5446.3655    5046.7376    115835.61   -29593.339 
  102750    299.28841    17.766222    94769.291   -29591.545    5384.8478    5042.0817    115837.53   -29600.161 
  103000    303.00644     274.2677    94365.043   -29474.214    5451.7431     5077.472    115919.18   -29482.164 
  103250    291.56208    204.70609    93871.899   -29628.961    5245.8344    5115.1526    115724.42   -29637.263 
  103500    302.72334   -246.43628    94610.921   -29550.455    5446.6497    4946.7336    115976.69   -29557.698 
  103750    295.53727    12.179418    93521.487   -29744.761    5317.3566    5023.3128    115716.78    -29749.85 
  104000    306.53544   -230.60446    94033.246   -29540.227    5515.2376    4904.2665    116022.59   -29547.846 
  104250    300.05749    113.16022    93879.327   -29695.319    5398.6852    5071.8613    115705.01   -29700.731 
  104500    298.62161    373.28484    93314.301   -29778.686    5372.8506    5180.3413    115518.69   -29784.222 
  104750    303.35885   -399.21298    94111.544   -29723.927    5458.0838    4910.3514    115831.47   -29730.467 
  105000    297.51628   -315.75294    94148.138   -29668.509    5352.9633    4925.2981    115877.94   -29672.049 
  105250    295.12076   -380.98893    94293.216   -29590.619    5309.8628    4917.3514    115968.56   -29595.954 
  105500    298.26492   -100.89129    93454.473   -29799.083     5366.433    5008.9077    115665.67   -29804.528 
  105750    304.77473    -275.3847    94781.999   -29598.681    5483.5587    4927.6259    115940.43     -29606.6 
  106000    298.97342    254.48696    94169.589   -29685.388    5379.1804    5137.3298    115651.94   -29690.904 
  106250    295.50622    1.9712361     93801.67   -29683.133    5316.7979    5040.6754    115747.77   -29687.614 
  106500    293.75771    77.784183    93823.098   -29514.198    5285.3386    5026.3633    115930.39    -29517.96 
  106750    303.25395   -99.972908    94547.706   -29570.818    5456.1965    4988.0802    115911.17   -29577.981 
  107000    300.17016    33.950883    94172.414   -29570.644    5400.7124     5037.417    115868.77   -29579.589 
  107250    296.93878   -323.48664    94354.644   -29607.082    5342.5729    4910.1844    115952.53   -29614.123 
  107500    295.65353    293.77255    94121.317   -29654.026    5319.4483     5150.297    115662.82   -29661.323 
  107750    304.23399   -58.035051    94953.521   -29666.496    5473.8295    5055.7982    115745.92   -29672.589 
  108000    295.58582    -216.8295    95096.291   -29565.886    5318.2301    4977.5981    115932.51   -29571.762 
  108250    300.37629   -277.51256    94838.427   -29588.293    5404.4211    4918.0335    115974.63   -29591.544 
  108500    300.95233    450.63478    94298.722   -29794.658    5414.7852    5271.3886    115410.94    -29800.22 
  108750    295.96956    -448.8037    94860.757   -29616.631    5325.1345    4873.5473    115980.97   -29623.076 
  109000    296.60209    301.67636    93980.744   -29827.614     5336.515    5206.8766    115434.67   -29832.585 
  109250    302.14628    152.04164    94364.769   -29650.379    5436.2671    5108.2705    115711.25   -29657.688 
  109500    307.97437   -312.37902    94941.691   -29728.875     5541.127    4951.9181    115789.26    -29735.81 
  109750    301.44867    77.313506    94540.505   -29637.698    5423.7155    5079.1728    115754.94   -29644.459 
  110000    298.53338    -20.62918    94374.135    -29553.05    5371.2632     5017.513    115906.95   -29559.649 
  110250    297.15911   -286.01539    94741.641    -29672.38     5346.537    4947.7897    115847.67   -29675.765 
  110500    305.49146   -166.45298    95134.096    -29390.08    5496.4541    4905.5132    116170.08   -29395.749 
  110750    299.05894    111.60284    93701.387   -29672.149    5380.7191    5069.8672    115725.93   -29680.016 
  111000    300.85322    246.02266    93827.785   -29541.311    5413.0022    5047.9697    115882.44   -29549.505 
  111250    301.87962   -354.40972    94567.849   -29635.336    5431.4693    4924.2129    115907.73   -29642.793 
  111500     303.2086   -91.979753    93941.216   -29779.475    5455.3806    5048.0496    115649.17   -29785.756 
  111750    298.83503     14.55242    94453.613   -29662.005    5376.6905    5065.6441    115749.69   -29666.814 
  112000    306.74339   -196.06204    93617.885   -29648.408    5518.9791    4924.6202    115904.68   -29651.405 
  112250    297.98939    117.73865    93627.862   -29652.258    5361.4757    5042.7463    115772.36   -29658.102 
  112500    297.88454   -99.262953    93904.036   -29677.916    5359.5891    4984.6186    115813.79   -29683.182 
  112750    302.32032   -55.059286    93408.602   -29679.759    5439.3984    4965.6512    115830.46   -29685.274 
  113000    303.46593    204.53202    92992.204   -29595.074    5460.0105    5021.0112    115849.88    -29605.19 
  113250    302.43362    177.89055    93682.212   -29706.786     5441.437    5104.5619    115658.04    -29712.21 
  113500    298.50017     92.72196    94365.303   -29702.209    5370.6657    5113.2359    115658.43   -29708.748 
  113750    303.04681   -76.606484    94203.288   -29605.416    5452.4696    4993.3534    115880.27    -29611.43 
  114000    298.23526    18.815434    93903.939   -29597.068    5365.8993    5020.0792    115852.67   -29603.628 
  114250    302.02064   -80.256568    94166.314   -29716.628    5434.0066    5028.2025    115721.32   -29725.873 
  114500    299.30464    108.23872    94229.158    -29665.23    5385.1398    5087.1981    115727.69   -29669.471 
  114750    296.84738    169.02328    94678.694   -29770.804    5340.9284    5193.1323    115506.82   -29774.732 
  115000      303.802    173.39993    95055.989   -29655.306    5466.0571     5156.801    115660.39   -29660.705 
  115250    301.64405   -55.756343    94810.258   -29726.898    5427.2309    5099.1478    115640.84   -29730.949 
  115500    301.59508    39.364463     94130.08   -29638.624    5426.3498    5054.8537    115787.54   -29642.974 
  115750    298.35633    47.518536    93901.343   -29714.774    5368.0776    5037.0267    115722.22    -29717.77 
  116000    298.54605   -180.31153    94598.482   -29656.395    5371.4911    5010.9911     115802.4   -29663.249 
  116250    304.60489    258.54265    93937.122   -29779.792    5480.5028    5172.3895    115526.45   -29785.913 
  116500    303.05393   -283.52968    94166.135    -29626.14    5452.5976    4897.0179    115949.52   -29632.039 
  116750    300.50823    58.938503    94190.464    -29735.94    5406.7951    5105.5794    115634.46   -29740.716 
  117000    299.60295    383.14804     94278.85   -29640.622     5390.507    5188.5375    115646.15   -29644.966 
  117250    298.26674    234.35414    94206.659   -29692.363    5366.4657    5179.7927    115596.33   -29696.986 
  117500    300.37842    111.64494    94198.026   -29652.918    5404.4595    5107.1896    115706.68   -29659.193 
  117750    299.67224   -148.70641    94517.447   -29681.768    5391.7537    5018.1036     115779.2   -29687.881 
  118000    296.77668   -18.685318    94103.925   -29661.413    5339.6563    5021.6503     115784.4   -29667.458 
  118250    300.55842   -129.94395    93682.527   -29660.331     5407.698    4921.4741    115891.39     -29665.2 
  118500    296.50012    160.73969    94562.754   -29518.119    5334.6804     5072.377    115869.69   -29525.053 
  118750    297.85299    128.00354    94954.745   -29444.525    5359.0215    5066.5281    115960.09   -29450.646 
  119000    297.47262    237.27897     93594.59   -29572.495    5352.1777    5047.0883    115852.85   -29579.252 
  119250    303.31949   -197.06663    93764.472   -29655.096    5457.3756    4970.5928    115841.09   -29664.472 
  119500    298.20434    265.27589    93543.277   -29581.044    5365.3431    5086.4643    115809.38   -29588.189 
  119750    297.63465   -139.11183    94349.224   -29727.665     5355.093     5034.327    115710.98   -29734.602 
  120000    297.19916    439.94647    93754.421   -29505.751    5347.2576    5153.7872    115814.67    -29512.79 
  120250    301.65242   -92.699145    93963.528   -29602.725    5427.3814    4973.9564    115884.94   -29610.514 
  120500    295.69897   -299.77771    93685.893   -29735.566     5320.266    4914.9983     115820.6   -29739.981 
  120750    295.73089    75.627957    93459.229    -29749.07    5320.8403    5067.6538    115663.08   -29753.674 
  121000    303.20361    108.71135    94129.044   -29483.137    5455.2907    4994.1147    115989.93   -29490.828 
  121250    305.44643    127.95463    94432.248   -29482.131     5495.644    5035.2057    115953.99   -29488.917 
  121500    295.95517   -43.542216    94462.936   -29628.728    5324.8755    5023.7334    115826.25   -29633.397 
  121750    303.40193   -201.87687    94424.159   -29673.211    5458.8589    4999.1141    115798.04   -29679.932 
  122000    306.89658   -44.278265    95018.376    -29604.72    5521.7352    5051.1933    115819.08   -29610.676 
  122250    305.46903    399.18474    94345.044   -29565.139    5496.0505    5141.5806    115764.34   -29569.167 
  122500    298.16299    161.91791    94384.103   -29448.482    5364.5991    5036.9257    115988.01   -29454.926 
  122750    304.09477   -190.63598    94107.621   -29646.462    5471.3247    4946.4628    115879.74    -29651.32 
  123000    296.26556   -35.571445    93984.508   -29704.479    5330.4602     5017.318    115749.69   -29710.856 
  123250    301.76186    6.4404131    94220.106   -29734.045    5429.3506    5083.8059    115655.37   -29740.732 
  123500    299.12329    151.86603    94593.893   -29712.417     5381.877    5179.7309    115583.05   -29718.639 
  123750    296.15583   -104.37269    94699.498   -29705.971    5328.4859    5080.9194    115682.83   -29711.714 
  124000    302.51815    142.41319    94229.519   -29499.181    5442.9579    5064.0571    115905.01   -29504.685 
  124250    292.90903   -347.52141     94414.58   -29671.099    5270.0689    4928.4437    115876.38    -29677.59 
  124500    305.98835    141.99527    94687.014   -29672.137    5505.3942    5138.4266    115657.12   -29676.529 
  124750    298.86523    407.57685    94399.218   -29552.091    5377.2339     5172.057    115755.67   -29556.892 
  125000    298.90484   -82.659284    93706.137   -29687.341    5377.9465    4957.1402    115832.64   -29692.534 
  125250    295.25876    130.03068    93225.504    -29713.44    5312.3457    5048.7652     115709.6   -29718.244 
  125500    303.07548      73.0018    94012.826   -29751.937    5452.9855    5082.5094    115640.44   -29757.222 
  125750    304.34368   -157.76876    94142.436   -29736.188     5475.803    4998.3422    115736.63   -29744.323 
  126000    293.45127   -165.31205    94332.797   -29657.842     5279.825    4970.7435    115847.56   -29663.781 
  126250    300.69263   -130.76489    94575.371   -29810.177    5410.1127    5036.5788    115635.81   -29816.179 
  126500    300.38199   -59.804448    94761.619   -29697.147    5404.5237     5060.273       115715   -29703.129 
  126750    292.49847   -170.86165    94357.722   -29594.603     5262.682    4968.0963    115905.87   -29603.836 
  127000    302.40174    44.169685    94433.719   -29573.538    5440.8634    5027.3034    115880.04     -29579.5 
  127250    299.77983   -360.19999    94016.058   -29772.557    5393.6894    4946.6675    115762.07   -29779.867 
  127500    302.11387    133.41497    93910.967   -29533.439    5435.6839    5033.4203    115903.33   -29540.469 
  127750    304.63467   -172.32864    93983.671   -29791.076    5481.0387    4985.6252    115694.65   -29796.193 
  128000    294.58146    170.06861    93226.179   -29634.482    5300.1596    5043.4459    115795.73   -29639.339 
  128250    297.51484   -69.960391    93711.537    -29796.15    5352.9374    5028.1465    115653.23   -29803.373 
  128500    302.27759    138.65559    93814.568   -29692.336    5438.6297    5071.0908     115701.4   -29702.634 
  128750    294.86571   -350.91626    94700.635   -29637.526    5305.2738    4933.2119    115908.62   -29644.898 
  129000    296.59063    134.23197    94025.694   -29757.511    5336.3088    5166.0573    115561.32   -29763.642 
  129250    306.27623    84.571934    94177.252   -29682.536    5510.5739    5046.9771    115742.29   -29689.301 
  129500      301.074   -49.171546    94010.381   -29696.507    5416.9745    5020.4403    115751.44   -29702.934 
  129750    299.06583   -223.55994    94339.667   -29691.028     5380.843    4970.4465    115814.76   -29696.973 
  130000    298.63921    184.24518     93774.11   -29691.049    5373.1673    5113.6833    115672.37   -29697.961 
  130250     295.3579   -301.18942    94369.624   -29543.803    5314.1293    4876.1269    116056.76   -29549.716 
  130500    294.48926    -59.02741    94080.529   -29671.549    5298.5008    5004.1401    115799.68   -29677.457 
  130750    305.13637   -344.08208    95189.775   -29496.815    5490.0653    4880.1509    116089.95   -29504.915 
  131000    304.36094    234.68675    94021.108   -29720.798    5476.1135    5115.7155    115638.89   -29730.782 
  131250    300.13877    46.998067    94457.063    -29646.01    5400.1476     5080.231    115748.49   -29652.935 
  131500    298.49104    286.55546    94217.553   -29552.271    5370.5014    5149.7644    115762.37   -29562.601 
  131750    298.93375    55.004897    94511.405   -29548.289    5378.4668    5011.9882    115908.97   -29553.996 
  132000    297.97005    94.157068    94233.305   -29774.062    5361.1276    5104.6399    115596.52   -29783.827 
  132250    301.56123    -16.72092    93819.237   -29693.609    5425.7408    5042.8817    115734.22   -29703.657 
  132500    293.94103    48.802899    93659.421   -29716.652    5288.6368    5039.0335    115717.32   -29725.967 
  132750    301.73091    116.22324    94223.354    -29722.08    5428.7937    5095.9954    115657.44   -29728.793 
  133000    295.42292    110.27699    94378.178   -29543.931    5315.2993    5027.0916    115896.01   -29551.914 
  133250    293.27682    32.065562    93407.918    -29728.05    5276.6862    5041.7331    115697.14   -29733.144 
  133500     305.5886      249.766    94032.117   -29675.733    5498.2018    5129.6182     115668.2   -29682.512 
  133750    299.72054   -86.864335     95140.37   -29599.149    5392.6228    5073.1918    115793.68   -29606.612 
  134000    301.80641   -160.93004    94148.636   -29543.851     5430.152    4897.0578    116021.72   -29552.069 
  134250    297.42037    336.20725    93580.471   -29615.135    5351.2378    5161.1081    115694.92    -29621.87 
  134500    297.76809   -327.47804    94068.017   -29599.962    5357.4939    4895.1726    115978.53   -29605.447 
  134750       302.17     200.5565     93884.77   -29807.436    5436.6938    5208.3505    115460.66   -29812.385 
  135000    303.09226   -10.008359    94269.077   -29610.815    5453.2873    5009.1434     115853.5   -29619.447 
  135250    303.86483    3.6588164    93948.962   -29697.705    5467.1875    5058.5539    115717.83    -29703.39 
  135500    298.38407    -340.2637    93997.766   -29712.149    5368.5768    4911.4962    115860.53   -29716.153 
  135750    298.45961   -125.25839    94487.392   -29592.695    5369.9358    4999.4765     115880.9   -29599.118 
  136000    298.87804    289.12034    94759.225    -29741.38    5377.4644    5218.3896    115511.13     -29748.2 
  136250    303.12458    440.55433    94583.896   -29725.803    5453.8689    5281.9397    115467.48   -29731.806 
  136500    299.51091    192.84495    94135.399   -29597.147    5388.8511     5032.944    115845.71   -29602.879 
  136750    299.91694  -0.64117427    94849.037   -29637.207    5396.1564    5064.3598    115770.93   -29643.326 
  137000    300.10831   -77.013028    94814.511   -29591.891    5399.5995    4988.7132     115899.7   -29594.533 
  137250    300.30633    395.60001    93761.294   -29596.079    5403.1623    5146.7404    115717.37   -29601.009 
  137500    299.75965   -298.20266    94708.127   -29566.272    5393.3265    4921.9746    115986.26    -29572.17 
  137750     302.0013    397.04335    94710.919   -29612.897    5433.6586    5228.1274    115634.07   -29617.014 
  138000    304.65884    193.52041    94471.101   -29566.241    5481.4734     5108.462    115798.29   -29570.598 
  138250    300.66034   -207.67705    94965.618   -29582.486    5409.5319    4980.3617    115917.75   -29587.526 
  138500    300.63261   -419.77359    95100.182   -29494.204    5409.0329    4855.2924    116127.01   -29499.243 
  138750    299.99327    27.482933    94561.181   -29492.785    5397.5297    5001.2268    115975.58   -29497.405 
  139000    298.10655    -453.7377    94932.627   -29447.683    5363.5835    4814.3195    116216.92   -29453.122 
  139250    302.72029   -33.443902    94440.636   -29460.569    5446.5948    4959.3205    116058.65   -29465.537 
  139500    292.81976    346.04657    94130.416   -29646.098    5268.4627    5179.3427    115653.54   -29649.333 
  139750    306.16497   -177.42258    94827.067   -29574.748    5508.5721     4950.778    115951.39   -29578.749 
  140000    298.42648    131.25374    93588.651   -29749.883    5369.3399    5099.6251    115623.21    -29755.85 
  140250    300.82833    306.17317    93801.243   -29544.301    5412.5543    5095.0726    115826.15   -29547.979 
  140500    296.70627   -53.535125    94280.821   -29611.003    5338.3895    5018.1918    115845.45   -29615.616 
  140750     299.0376   -263.50959     94948.04   -29680.261    5380.3351    4990.4763    115797.62   -29686.642 
  141000    300.70485   -139.91112    94952.603   -29635.752    5410.3326    5016.7465    115824.08   -29640.225 
  141250    294.33864   -107.60961    94433.023   -29653.755    5295.7907    5006.2046    115814.51   -29658.872 
  141500    298.88456   -8.7563145    94517.634   -29739.206    5377.5817    5092.3122     115639.1    -29744.31 
  141750    295.61676   -157.95969    95105.914    -29552.71    5318.7868    4998.8282    115926.58    -29556.67 
  142000    302.16602     191.9051     94732.07   -29722.377    5436.6222    5173.3441    115573.45   -29728.258 
  142250    300.64233    33.891542    95453.349   -29539.596    5409.2077    5056.2832     115879.8   -29543.946 
  142500    299.57568    91.140535    94557.786   -29719.398    5390.0164    5110.0035    115642.45   -29723.516 
  142750    298.20366   -258.29809    95481.839   -29481.546    5365.3307    4985.4098    115999.04   -29489.387 
  143000    301.07613    185.87357    94655.576   -29638.717    5417.0127    5128.7621    115693.58   -29644.317 
  143250    302.13429    -322.6995    94857.012   -29560.071    5436.0514    4870.7094    116035.46   -29565.838 
  143500    299.18414     198.5809    94507.603   -29653.264    5382.9717    5112.3642    115705.18   -29657.817 
  143750    299.56486   -402.74124    94792.544   -29481.088    5389.8217    4828.9977    116163.93    -29485.91 
  144000    301.88626    34.217594    94379.519   -29472.634    5431.5887    4980.9854    116020.12   -29476.173 
  144250    301.48113   -165.71249    94349.816    -29675.99    5424.2995    4987.4819    115808.97   -29679.494 
  144500    300.41748    37.238678    93853.403   -29645.071    5405.1621    5034.7492    115786.21    -29651.14 
  144750    294.48491   -287.62296     94348.88   -29743.075    5298.4225    4985.5737    115745.51   -29749.076 
  145000    295.21444   -188.94571    94936.571   -29567.304    5311.5482    4973.0146    115930.07   -29571.213 
  145250    306.31705    -179.9161    95072.602   -29499.077    5511.3082    4925.4188    116050.11   -29503.746 
  145500    294.20563    231.47904    93814.051   -29528.709    5293.3976    5043.8447    115902.17   -29533.803 
  145750    296.53074   -274.36283    94202.785   -29751.608    5335.2314    4969.9403    115752.38   -29757.515 
  146000    304.65686    75.871247    94445.634   -29572.671    5481.4378    5072.8361    115824.85   -29576.024 
  146250    299.73689    178.77162    94097.737   -29524.759    5392.9169     5069.226    115879.14   -29532.484 
  146500    301.12698    104.53096    94014.359   -29833.966    5417.9276     5131.544    115513.54   -29840.745 
  146750     299.2576   -211.45825    94193.351   -29876.239    5384.2935    5069.9658     115531.8   -29881.375 
  147000    298.13926    231.78982     93198.15   -29839.541    5364.1721     5144.075     115486.9   -29847.702 
  147250    302.32337   -141.30274    94483.608   -29608.736    5439.4534    4948.5981    115912.76   -29616.366 
  147500    301.55599   -57.058065     94363.31   -29620.946    5425.6465    4996.7444    115850.47   -29629.334 
  147750    296.10489   -312.35379    94043.151    -29598.96    5327.5694    4850.9016    116022.77   -29604.235 
  148000    300.58628    208.09955    94363.804   -29557.187    5408.1993    5099.4519    115805.66   -29562.987 
  148250    300.30183    -241.6779    94244.596   -29776.959    5403.0815    4985.8847    115716.87   -29782.384 
  148500    297.87943   -550.69463    95065.413   -29604.689    5359.4972    4839.8988    116035.23    -29608.13 
  148750    296.57068    93.069949    94594.368   -29613.368      5335.95    5068.0477     115790.1   -29621.281 
  149000    302.26477   -144.33091    95136.336    -29442.32     5438.399    4933.2458     116086.3    -29446.83 
  149250    302.00675    253.90433    94732.745   -29679.956    5433.7566    5166.4046     115620.7   -29687.207 
  149500    297.81441    188.70573    94975.258   -29629.567    5358.3274     5158.796    115684.92   -29635.424 
  149750    301.98021    3.9995656    95038.038   -29699.983    5433.2792    5120.1298    115659.31   -29706.251 
  150000    300.42869    240.00228    94586.967   -29605.461    5405.3638    5136.1428    115733.19   -29612.437 
  150250    299.28644    87.630699    94186.615   -29490.519    5384.8124    5021.7028    115950.43   -29495.971 
  150500    300.28558   -153.02537     93090.99   -29698.353    5402.7891    4908.9609    115868.27    -29705.49 
  150750     304.5572    4.2362455    93145.598   -29682.201    5479.6447    4993.2034    115797.42   -29688.591 
  151000    302.50742   -10.794645     93780.06   -29728.888    5442.7647    5051.2983    115687.23   -29737.553 
  151250    300.24213   -231.54862    94285.378   -29820.092    5402.0073    5040.6089    115619.16   -29823.367 
  151500    302.49514    179.36133    94095.812   -29560.955    5442.5438    5074.2132    115829.76   -29570.066 
  151750    305.25239    208.18267    93994.274   -29650.702    5492.1527    5106.2449    115710.66   -29658.254 
  152000    299.02867    105.39449    93747.631   -29674.375    5380.1744    5066.3788    115731.73   -29681.242 
  152250    302.35186   -382.22618    94098.626    -29634.36    5439.9659    4835.0396    116007.69   -29642.035 
  152500    299.25341    434.92448    93960.735   -29537.829    5384.2181    5133.1407     115800.2   -29547.225 
  152750    298.79285   -62.660973    93599.778   -29777.285    5375.9317    5065.2708    115634.54   -29787.839 
  153000    304.38638    139.77295    93303.297   -29739.731    5476.5713    5077.9037    115661.21   -29748.482 
  153250    297.72999    5.6122047    93780.435   -29754.619    5356.8085    5040.0601    115669.34   -29762.115 
  153500    303.10433    44.374492    94500.276   -29597.082    5453.5046    5013.0974    115856.76   -29603.961 
  153750    301.75579    149.14145    94965.003   -29644.667    5429.2413    5116.7761    115697.12   -29653.461 
  154000    300.53298    436.10567    93982.377     -29638.3    5407.2403     5198.406    115635.06   -29646.014 
  154250    298.17852    90.582845    94120.725   -29715.522    5364.8785     5078.196     115676.6   -29723.826 
  154500    303.89815    400.21393    94674.616   -29486.388    5467.7871    5179.5397     115797.3   -29495.319 
  154750    299.25294   -416.12742    95165.481   -29737.944    5384.2097    4942.8845    115784.22   -29747.506 
  155000    298.69435     63.45048    94255.191   -29541.837    5374.1593    5000.8091    115922.26   -29547.447 
  155250    305.39742    120.11678    93888.319   -29606.189    5494.7622    5060.0413    115804.51   -29614.398 
  155500     296.5589   -47.662278    94228.739   -29650.301    5335.7381    5006.1889    115824.62    -29657.68 
  155750    300.49998    66.895148    94056.078   -29724.507    5406.6466    5083.4872    115662.63   -29731.558 
  156000    301.67984   -228.65175     94211.65   -29655.146    5427.8748    4941.7529    115871.84   -29661.665 
  156250    309.31593    130.06105    93773.321   -29626.153    5565.2646    5051.0573    115797.38   -29633.658 
  156500    297.49577    192.17527    94224.546   -29718.808    5352.5943    5192.9631    115568.37   -29726.642 
  156750    296.79464    373.24131    94007.869   -29705.576    5339.9794    5226.3972    115543.45   -29710.146 
  157000    302.41362    427.93365    93698.135   -29487.299    5441.0771    5128.9161    115856.57   -29493.329 
  157250    297.43972    364.79763      93702.9   -29668.912    5351.5859    5187.7539    115619.73    -29676.76 
  157500    301.08065   -227.74002    94082.929   -29636.477     5417.094    4893.6142     115938.7   -29644.793 
  157750    298.93591    414.52197    93048.154   -29674.981    5378.5056    5166.4685    115631.63   -29685.062 
  158000    298.13616    100.38421    93687.207   -29621.244    5364.1162    5087.0878    115761.04   -29632.516 
  158250    302.69975   -287.66305    94694.877   -29633.316    5446.2252    4941.5389     115893.2   -29640.905 
  158500    302.10795    234.43347    94055.911    -29784.78    5435.5774    5180.0562     115511.2   -29790.326 
  158750    297.12474    320.03789    93783.202   -29529.684    5345.9186    5099.2331    115838.32    -29537.43 
  159000    296.43046    148.85598    93842.105   -29606.868    5333.4272    5048.6874    115815.54   -29616.241 
  159250    295.51447   -128.49003    93937.854   -29691.308    5316.9464    4985.9107     115799.7   -29697.559 
  159500    301.36437     21.76803    94438.539   -29588.439    5422.1987    5057.3847    115829.86   -29595.128 
  159750    301.20678    15.200173    94374.892   -29589.493    5419.3634    5014.3614    115870.09   -29595.328 
  160000      308.074    104.10629    95023.354   -29452.238    5542.9196    5036.8437    115981.59   -29457.968 
  160250    298.40074   -33.912963      95106.2   -29500.383    5368.8767    5014.8677    115956.69   -29508.114 
  160500    297.05085       225.84    94155.969   -29557.621    5344.5892    5103.7054    115808.28   -29564.396 
  160750    301.35623    52.818517    94843.798   -29555.681    5422.0524    5044.8973    115866.04   -29562.387 
  161000    299.66927    55.023394     93817.02   -29657.667    5391.7002    5007.2251    115804.11   -29665.132 
  161250    301.49681   -339.78729    94321.916   -29711.855    5424.5818    4933.3172    115818.11   -29718.817 
  161500    297.34376   -18.726773    94467.403   -29617.168    5349.8593    5062.7341    115786.84   -29625.668 
  161750    296.66996    237.04823    94198.516   -29638.956    5337.7361    5146.0001    115690.87   -29645.485 
  162000    306.97698   -194.19364    94754.834   -29661.583    5523.1818    5009.5821    115805.23   -29668.592 
  162250     297.3831   -108.28655    94575.507   -29817.574    5350.5672     5098.105    115556.71   -29824.415 
  162500    295.91344   -11.365047    94032.445   -29686.291    5324.1248     5062.488    115730.28    -29694.49 
  162750    310.68656    -194.9504    94945.683   -29548.563    5589.9253    4995.2001    115914.08   -29560.322 
  163000     296.3341    390.69043    93849.459   -29615.591    5331.6933    5109.3398    115751.63   -29623.796 
  163250    303.74014    85.401648    94012.399   -29825.244     5464.944    5133.2026    115517.54   -29832.467 
  163500      301.528      -196.79    95439.489    -29572.34    5425.1429    5017.2506    115883.16   -29581.027 
  163750    302.07158    99.003239      94165.6   -29635.181    5434.9231    5067.1652    115767.68   -29643.353 
  164000    296.77415   -50.549733    94490.879   -29629.984    5339.6108    5032.6564    115809.94   -29637.979 
  164250     297.6776   -690.90316    94858.501   -29629.409    5355.8659    4744.3542    116104.62   -29636.891 
  164500    297.62332   -276.50148    94524.167   -29654.709    5354.8892    4958.9731    115865.53   -29660.303 
  164750    298.29586   -152.41244    94385.989   -29572.237    5366.9896     4966.794     115934.2    -29578.11 
  165000    300.60407   -6.4012634    93922.095   -29414.184    5408.5194    4957.5392    116099.08   -29421.926 
  165250    299.28336     -11.4921    94151.145   -29663.064     5384.757    5030.1863    115778.49   -29668.905 
  165500    298.65872    21.006385    94681.842   -29555.066    5373.5182    5044.3953    115869.22   -29563.548 
  165750    297.59721   -363.07329    95459.132   -29565.845    5354.4195    4946.2785    115956.58     -29573.2 
  166000    302.84545    125.34658     94605.49   -29785.059    5448.8466    5175.9013    115517.55   -29793.616 
  166250    301.40243    286.21868    95287.443     -29643.3    5422.8836     5188.317     115636.3   -29652.388 
  166500    304.07301    15.940193    94933.655   -29555.105     5470.933    5064.3125    115851.35   -29563.344 
  166750    300.33861     325.5762    93879.206   -29597.713    5403.7432    5144.7291    115738.12     -29602.5 
  167000    298.95004   -195.17312    94518.865   -29648.607    5378.7597    4990.5702    115834.75   -29656.084 
  167250    301.21541    20.900073    94214.229   -29639.011    5419.5187    5053.0864     115779.4   -29649.749 
  167500    297.90973   0.43745545    93745.246   -29710.132    5360.0424    5024.2567    115743.96   -29719.139 
  167750     293.7697   -43.150461    94900.509   -29600.303    5285.5542    5036.4327    115840.93   -29606.086 
  168000    300.34632   -223.34997    94972.675   -29645.401    5403.8819    4977.4574    115848.94    -29649.49 
[...]
  209750     299.4093    220.20056    94403.095   -29598.174    5387.0229    5107.1794    115773.08   -29603.831 
  210000    300.17374   -43.655857    94724.602   -29596.491    5400.7767      5027.06    115846.81   -29601.224 
  210250     301.6681    179.83213    93904.689     -29743.4    5427.6636    5109.4576    115619.48   -29751.649 
  210500    300.08514     126.5165    94273.631   -29677.189    5399.1827    5114.9289    115678.96    -29684.67 
  210750    295.08281   -464.97982    94706.469   -29540.827    5309.1798    4830.4452    116098.17   -29548.163 
  211000    293.12379     158.4878    93784.257   -29411.769     5273.933    4973.9672    116078.87   -29419.035 
  211250    301.91459   -7.3124348    94123.446   -29549.687    5432.0985    4957.8688    115969.13    -29557.69 
  211500    300.23604   -197.85085    93146.601   -29745.664    5401.8978    4893.7126    115837.95   -29754.862 
  211750    301.03731    81.624336    93643.765   -29534.359    5416.3142    4999.3104    115946.02   -29539.916 
  212000    305.44752    250.54283    93929.187   -29573.463    5495.6635    5086.6116    115804.67   -29583.365 
  212250     303.3582   -155.95358    94027.819   -29557.549    5458.0721    4893.6971    116025.14   -29563.169 
  212500    299.67784   -346.50436    93885.536   -29707.299    5391.8545    4907.4824    115864.13   -29712.625 
  212750    305.48727    327.32512    94097.698    -29500.28    5496.3787    5096.2239    115875.19   -29507.364 
  213000     305.9959    441.46999    94149.565   -29541.488    5505.5301    5132.0948    115804.36    -29548.41 
  213250    296.41001    43.065536    94192.311   -29712.803    5333.0591    5102.5983    115665.04   -29719.164 
  213500    296.76762   -62.591581    94509.106   -29532.434    5339.4933    4996.4187    115945.68   -29541.039 
  213750    304.18755    -277.2138    94158.194   -29698.507    5472.9939    4928.5296    115849.61    -29704.53 
  214000    293.30374   -331.80618    94600.422   -29661.529    5277.1705    4951.1699    115856.75   -29669.039 
  214250    302.10952    33.539568    93309.343   -29709.881    5435.6057    5035.1076    115723.99   -29715.146 
  214500    301.26369    241.11903    93108.927    -29604.64    5420.3874    5034.4273    115837.74   -29610.404 
  214750    304.72277   -361.64352     94206.86   -29700.958    5482.6237    4926.1012    115843.97   -29710.606 
  215000    302.20045   -167.37433    93595.757   -29736.025    5437.2417    4956.0207    115789.78   -29741.087 
  215250    297.30854   -116.33624    94158.367   -29590.389    5349.2257    4974.9472    115913.58   -29595.575 
  215500    307.30234    288.92717    94866.484   -29552.387    5529.0358    5156.4206    115757.01   -29559.821 
  215750    301.57766      200.973    93893.545   -29746.761    5426.0363    5145.2665    115573.85   -29757.806 
  216000    300.75171    299.84998     93877.98   -29647.692    5411.1757     5119.782    115711.52   -29652.697 
  216250    300.34423    -345.5904    95258.578   -29599.792    5403.8442    4924.9447    115940.13   -29604.909 
  216500    304.20597   -123.99053    94674.027   -29736.117    5473.3254    5039.4513    115704.61   -29741.611 
  216750    297.68245    417.21679    93784.308   -29570.995    5355.9532    5166.8312    115739.53   -29576.183 
  217000    299.90512   -182.78204    94741.228   -29585.863    5395.9437    4990.4774    115889.17   -29591.136 
  217250    300.38512    33.837311     94165.94   -29666.191    5404.5799    5045.6511    115759.84   -29673.679 
  217500    297.95615    -283.7828    94677.724   -29541.907    5360.8776    4891.3577    116031.67   -29548.127 
  217750    299.44559   -427.29951     94668.02   -29579.626    5387.6759    4869.3378    116026.98   -29586.576 
  218000    300.87604   -508.16775    94519.194   -29578.993    5413.4127    4852.5391    116038.61   -29587.076 
  218250    294.29393   -84.793026    93617.105   -29704.009    5294.9862    4971.8259    115799.37   -29710.185 
  218500    307.42618    57.308656    94652.393   -29549.303     5531.264    5042.9033    115874.26   -29557.181 
  218750     299.1919   -104.81154    94309.424   -29818.012    5383.1114    5088.3191    115566.77   -29824.557 
  219000    295.53601   -260.81227    93841.172   -29642.802     5317.334    4913.4349    115916.02   -29649.351 
  219250    295.84514   -128.61289    93972.653   -29642.552    5322.8959    4945.7398    115884.96    -29648.67 
  219500    299.97021    9.8270608    94379.045   -29612.999    5397.1148    5036.5582    115819.23   -29618.975 
  219750    301.88959    69.865501    94376.821   -29681.133    5431.6487    5060.9679    115732.32   -29686.508 
  220000     302.8168      -179.93    94598.854   -29551.275    5448.3311    4969.5805     115948.6   -29561.194 
  220250    299.14827   -125.07909    94718.257     -29590.7    5382.3263    5001.2639    115874.79   -29600.635 
  220500    304.30015     434.9013    93830.305    -29649.29    5475.0199    5186.6809    115641.65   -29658.424 
  220750    294.96358   -267.35116    94561.275   -29619.844    5307.0347    4904.0967    115950.85   -29626.392 
  221000    304.20032   -112.96499    94750.558   -29716.558    5473.2237    5090.9641    115659.62   -29726.501 
  221250    303.03905   -51.071312    94159.592   -29658.342    5452.3299    5025.9851    115785.39   -29668.604 
  221500    295.48992    332.96069    94159.872   -29578.875    5316.5047    5122.1816    115772.66   -29585.918 
  221750     298.3884    -120.5577    94607.779    -29752.16    5368.6547    5067.8316    115639.68   -29760.831 
  222000    300.56284    54.964946    94677.994   -29707.144    5407.7775    5132.6788    115621.59   -29720.647 
  222250    299.03111    133.92563    94274.332   -29628.673    5380.2184    5083.5916    115748.84   -29639.402 
  222500    300.94702   -23.972758    95029.959   -29361.161    5414.6897    4943.3505    116162.29   -29373.388 
  222750    300.93183    193.80105    94116.717   -29718.338    5414.4165    5106.8361     115649.3   -29729.273 
  223000    294.17404   -27.775674    95068.099   -29578.097    5292.8292    5056.5952     115832.4   -29590.836 
  223250     299.5203   -109.18011    94857.719   -29732.965    5389.0199    5073.8675    115665.35   -29739.695 
  223500      304.586    396.51918    94053.962   -29585.879    5480.1629    5184.0395    115690.92   -29598.206 
  223750    303.35513    103.46589    94722.733   -29549.301    5458.0169    5077.3979    115840.52   -29558.911 
  224000    300.23952   -42.515469      94681.7    -29596.54    5401.9603    5054.8058    115810.21    -29606.66 
  224250    299.18979   -203.67935    94669.017   -29625.062    5383.0735    4963.3564    115886.16   -29633.691 
  224500    294.97283   -93.777301    94472.474    -29766.75    5307.2011    5046.5972    115658.03   -29777.483 
  224750    299.51641    283.95373    93954.817   -29702.146    5388.9499    5150.5289    115615.28   -29717.879 
  225000    299.61222    79.954946     94427.47   -29649.113    5390.6739    5092.3508     115721.8   -29660.064 
  225250    298.71339    -109.2019    94494.676   -29707.998    5374.5018    5034.2942    115732.13   -29714.301 
  225500     299.6112    134.93222    93802.817   -29631.447    5390.6555    5067.5458    115776.63   -29636.399 
  225750    301.52736    -124.0434    94680.235   -29627.652    5425.1313    4969.4606    115874.08   -29634.296 
  226000    306.68955    52.233612    94709.798   -29572.773    5518.0103    5062.5126    115831.12   -29583.122 
  226250    303.54297   -273.10243    94006.448   -29530.586    5461.3966    4815.7401    116121.84   -29541.196 
  226500    303.74852   -43.345979    94019.584   -29594.905    5465.0949    4970.7003    115909.54   -29600.882 
  226750    300.55977     412.3448    93204.533   -29671.951    5407.7224    5140.5451    115663.95   -29680.963 
  227000    300.16403   -221.87502    93840.891   -29696.026    5400.6021    4960.3608    115810.07   -29703.893 
  227250    301.12343   -135.29171    94244.893   -29543.118    5417.8638    4928.8421    116007.88   -29552.198 
  227500    296.47686   -104.94235    93936.933   -29612.668    5334.2618    4983.1647    115873.44   -29621.643 
  227750    299.55163    508.28521    93582.429   -29704.167    5389.5837    5248.2542     115523.5   -29713.426 
  228000     298.0152   -6.7564292    93986.455   -29652.627      5361.94    5016.9996    115797.34   -29662.568 
  228250    299.12911    241.39961    93742.569   -29772.043    5381.9816    5141.6454    115559.24   -29778.978 
  228500     300.5524   -206.57279    94457.354   -29636.978    5407.5897    4975.2529    115854.49   -29643.488 
  228750    298.69649    150.55076    94501.145   -29800.147     5374.198    5170.7494    115504.22    -29810.45 
  229000    300.25274    -142.8374     94132.98    -29702.62    5402.1982    4961.6277    115810.65   -29708.531 
  229250    299.12859   -297.85199    95163.839   -29707.755    5381.9723    4969.6024    115789.59   -29717.848 
  229500    299.68731    46.847062     94949.09   -29650.381    5392.0249      5070.55    115759.76   -29657.283 
  229750    295.49925    177.26937    94502.173   -29647.724    5316.6726    5159.1767     115669.4    -29652.27 
  230000    298.27053    458.43304    93861.246   -29745.641    5366.5338    5257.1594    115473.61   -29752.289 
  230250    300.33547   -239.61625    94480.795    -29592.37    5403.6867    4939.4891    115939.59   -29600.458 
  230500    298.70624   -126.72217    94383.375   -29690.883    5374.3733    5050.3931    115731.55   -29697.692 
  230750    300.64954   -157.52533    94180.133   -29556.371    5409.3375    4935.3839    115982.04   -29564.227 
  231000    299.59688    489.90934    93582.055   -29596.269    5390.3978    5199.7235    115670.02   -29603.816 
  231250    296.15526   -86.307149     94947.67   -29675.564    5328.4757    5064.1515    115728.45   -29684.132 
  231500    301.98898    199.16525    94188.573   -29700.903    5433.4369     5168.511    115592.41   -29708.794 
  231750    295.87285   -323.54758    95507.897   -29493.398    5323.3944    4943.3343    116030.42   -29501.857 
  232000    294.37698    135.35338    95063.843   -29668.603    5296.4804    5167.4877    115634.63   -29676.446 
  232250    303.12711   -373.28983    94636.251   -29519.272    5453.9143    4869.5526     116081.8   -29529.789 
  232500    301.53215    212.98906    94654.458   -29557.718    5425.2175     5115.846    115795.99   -29567.094 
  232750    306.78025   -460.89707    95859.477   -29488.708    5519.6422    4864.4575    116115.49   -29496.592 
  233000    297.26036    127.51876    95165.362   -29620.118    5348.3588    5142.4875    115710.46   -29626.294 
  233250    305.29216    34.099934    94379.266   -29692.865    5492.8682    5059.1228    115717.12   -29698.623 
  233500    298.58606    167.48256     94507.27   -29587.646    5372.2109    5120.3063    115760.74   -29599.202 
  233750     301.0262   -115.74953    95310.699   -29504.625    5416.1144    4993.7757    115967.31   -29513.796 
  234000    301.53446    201.85091    94803.033   -29569.777    5425.2591    5108.4756     115790.9   -29578.146 
  234250    304.05469    72.253101    94278.006   -29497.514    5470.6036    5031.9362    115935.08   -29506.993 
  234500    297.16532    75.152005    94329.931   -29574.355    5346.6488    5098.6108    115803.61   -29582.716 
  234750    294.92632    -100.8919    94671.944    -29457.17    5306.3643    4939.6744    116066.01   -29464.563 
  235000    298.21963   -274.94508    94537.448   -29606.481    5365.6182    4903.3336    115966.43   -29612.651 
  235250    303.89972   -70.170814    93600.397   -29750.092    5467.8153    5005.3572    115716.39    -29757.66 
  235500    301.74133    147.57522    93372.879   -29598.923    5428.9812    5045.4316    115831.35   -29607.591 
  235750    301.74153    218.21328    94082.223   -29693.913    5428.9848    5152.2871    115622.73   -29703.963 
  236000    299.95746   -105.59638    94376.248   -29740.734    5396.8854    5035.7245    115700.36   -29748.389 
  236250    298.77752   -67.619725    94516.884   -29598.255    5375.6558    5018.5544    115851.12   -29606.436 
  236500    302.44673    74.102017    94342.544   -29672.279    5441.6728    5072.1818    115731.68   -29676.839 
  236750    303.74721   -253.27053     94668.87   -29429.354    5465.0713    4873.9404    116162.33   -29438.504 
  237000    299.88737    65.044887    94430.271   -29695.607    5395.6243    5106.8056    115665.78   -29705.116 
  237250    302.53143    -240.3208     94655.75    -29603.24    5443.1968    4946.8386    115918.33   -29610.216 
  237500    300.23974      121.004    93740.261     -29776.1    5401.9643    5113.1588    115588.42   -29781.173 
  237750    305.47084    48.467348    94651.505   -29681.904    5496.0831    5109.3882    115678.61   -29690.876 
  238000    298.22754     -196.947    94225.665   -29744.411    5365.7605     5042.745    115684.27   -29752.101 
  238250    298.90742   -1.9782838     94352.77   -29642.501     5377.993    5056.7524    115771.18   -29652.304 
  238500    299.74449   -194.02413    94514.397     -29667.6    5393.0537    4999.1975    115798.18   -29674.148 
  238750    296.45037    51.631277     94352.42   -29581.664    5333.7854    5052.4965    115834.28   -29591.459 
  239000    304.71068    508.76185     93589.17   -29674.747    5482.4062    5228.8762    115557.47   -29681.718 
  239250    298.76859    131.23491    94920.256   -29564.443    5375.4951    5138.8094    115750.79   -29575.727 
  239500    301.47075   -283.16334    94780.053   -29637.806    5424.1129    4936.8323    115898.69   -29643.702 
  239750    299.99918     307.1074    93341.446   -29727.412    5397.6361    5136.6742    115601.65   -29733.205 
  240000     301.9665   -229.53521     93972.15   -29643.526    5433.0324    4934.2451    115893.32   -29649.472 
  240250     296.7205    241.83352    93857.228    -29628.34    5338.6455    5097.3075     115742.2   -29637.238 
  240500     300.5209    72.695077    94667.525   -29719.717     5407.023    5113.0085    115639.15   -29722.283 
  240750     304.6382    203.25726    94395.214   -29479.053    5481.1022    5064.1848    115936.37   -29486.592 
  241000    297.64274   -96.753847     93750.38   -29620.401    5355.2386    4967.0799    115885.85   -29625.621 
  241250    296.80191    69.054245    93923.752   -29656.172    5340.1103    5073.7927     115743.4   -29663.824 
  241500    303.65898     311.8152    94469.993   -29593.752    5463.4838    5172.3338    115700.04    -29601.95 
  241750    303.51724    17.480748    94562.869   -29623.302    5460.9337    5079.7583    115767.19   -29629.482 
  242000    299.33519    213.10214    94168.539   -29663.226    5385.6895    5119.3491    115689.37   -29671.197 
  242250    300.42163   -93.042235    94112.752   -29698.593    5405.2369    5030.2359    115742.68   -29707.943 
  242500    300.63323    9.2843724    93705.914   -29571.042     5409.044    4980.2508    115924.29   -29574.899 
  242750    300.51452   -202.25372    93906.665   -29704.194    5406.9081    4970.2716    115796.48   -29713.244 
  243000    296.61894   -162.47528    94251.199   -29643.564    5336.8182    4966.6156    115869.33   -29652.935 
  243250    296.31554     290.0473    94614.193   -29421.402    5331.3595    5094.0827    115960.25   -29430.213 
  243500    297.52184    127.48008    95196.079   -29487.591    5353.0634    5073.3835    115907.65   -29496.355 
  243750    300.00493    282.44288    94278.654   -29567.334    5397.7395     5152.245    115752.13   -29576.588 
  244000    305.19344    60.508512    93475.648    -29844.52    5491.0921    5056.4902    115576.16   -29853.007 
  244250    301.92534   -146.87116    94553.408   -29476.769    5432.2919    4901.6037    116093.34    -29483.26 
  244500    301.13275    276.94442    93197.012   -29706.328    5418.0315    5083.6402    115684.05   -29715.239 
  244750    299.51177    60.923129    93731.862   -29626.119    5388.8666    4994.7834    115848.12   -29634.671 
  245000    303.04455   -34.165146    93916.985   -29770.964    5452.4288    5044.4166    115662.27   -29778.862 
  245250    293.94284    207.76299    94536.967   -29489.497    5288.6693    5119.4797    115855.81    -29500.56 
  245500    296.30993    309.56499    94472.443   -29543.181    5331.2586    5113.5009    115813.23   -29550.628 
  245750    299.29624   -264.69849    95238.734    -29591.93    5384.9887      4985.78    115888.23   -29604.436 
  246000    298.54109    -134.1141    94808.612   -29693.791    5371.4018    5008.5499     115768.7   -29701.594 
  246250    300.47266    -156.0979    94944.148   -29608.767     5406.155    5041.0147    115816.35   -29615.891 
  246500    299.54007   -174.91254    94234.458   -29794.492    5389.3757    5040.2361    115637.77   -29803.388 
  246750    298.07977   -24.562311    93900.352   -29676.377    5363.1017    5015.1754    115780.67    -29681.84 
  247000    300.04576   -334.35295    94277.744   -29680.356    5398.4741    4937.4917    115860.72    -29690.22 
  247250    298.90065     136.0374    93864.473   -29689.208    5377.8711    5089.6189    115684.79   -29697.574 
  247500    303.94199    51.208686    94109.606   -29655.168    5468.5758    5039.3424    115785.95    -29663.32 
  247750    301.30314    364.75611    94135.371   -29695.498    5421.0972    5209.6698    115567.82   -29702.484 
  248000    301.52039   -130.22936    94209.045   -29590.291    5425.0059     4938.757    115944.37   -29598.598 
  248250    297.97285    86.276989    93828.364   -29609.802     5361.178    5047.4473    115804.69   -29617.859 
  248500    306.62444    200.96913    93507.845   -29821.046    5516.8388    5154.5078    115497.04   -29827.308 
  248750    298.36345   -32.912573    93947.875   -29575.014    5368.2057    5019.3677    115880.23   -29582.717 
  249000    298.83004    152.91841    94421.127   -29710.485    5376.6007     5144.413    115611.27   -29720.543 
  249250    298.15838   -19.251821    94583.007   -29586.472     5364.516     5039.237    115843.84   -29597.057 
  249500    300.34506    248.22041    94393.568   -29649.138    5403.8592    5142.9681    115670.47   -29654.983 
  249750    299.49391    -280.3966    94456.153    -29692.48    5388.5453    4942.7331    115839.21   -29695.835 
  250000    296.44283    331.46883    94195.017   -29633.203    5333.6496    5168.9241    115673.33   -29642.262 
  250250    296.01968    -77.03898     94043.28   -29635.293    5326.0362    4991.5637     115844.5   -29643.022 
  250500     301.0267    133.79012    94685.247   -29569.261    5416.1234    5103.4995    115797.43    -29576.32 
  250501    300.16831    132.07879    94689.006   -29553.698    5400.6791    5098.4329    115816.25   -29561.026 
Loop time of 23290.6 on 1 procs (1 MPI x 1 OpenMP) for 250000 steps with 9043 atoms

Pair  time (%) = 16646.4 (71.4729)
Bond  time (%) = 0.963805 (0.00413818)
Kspce time (%) = 1780.59 (7.6451)
Neigh time (%) = 2945.15 (12.6452)
Comm  time (%) = 70.1893 (0.301364)
Outpt time (%) = 0.931348 (0.00399882)
Other time (%) = 1846.29 (7.92721)

FFT time (% of Kspce) = 344.524 (19.3489)
FFT Gflps 3d (1d only) = 2.24782 4.40269

Nlocal:    9043 ave 9043 max 9043 min
Histogram: 1 0 0 0 0 0 0 0 0 0
Nghost:    24246 ave 24246 max 24246 min
Histogram: 1 0 0 0 0 0 0 0 0 0
Neighs:    2.96951e+06 ave 2.96951e+06 max 2.96951e+06 min
Histogram: 1 0 0 0 0 0 0 0 0 0

Total # of neighbors = 2969511
Ave neighs/atom = 328.377
Ave special neighs/atom = 2.00973
Neighbor list builds = 25640
Dangerous builds = 0
write_restart   confout-1.data
PPPM initialization ...
  G vector (1/distance) = 0.269629
  grid = 36 20 20
  stencil order = 5
  estimated absolute RMS force accuracy = 0.0288578
  estimated relative force accuracy = 8.69044e-05
  using double precision FFTs
  3d grid and FFT values/proc = 29889 14400
