LAMMPS (24 Apr 2013)
WARNING: OMP_NUM_THREADS environment is not set. (../comm.cpp:100)
  using 1 OpenMP thread(s) per MPI task
# ----------------- Init Section -----------------
units           real
atom_style      full
boundary	p p p
kspace_style	pppm 1.0e-4

# ----------------- Atom Definition Section -----------------
read_restart	confout-0.data
  orthogonal box = (0.637721 0.277596 0.277596) to (84.3623 36.7224 36.7224)
  1 by 1 by 1 MPI processor grid
  7168 atoms
  4786 bonds
  2381 angles
  2 = max # of 1-2 neighbors
  2 = max # of 1-3 neighbors
  4 = max # of 1-4 neighbors
  6 = max # of special neighbors

# ----------------- Settings Section -----------------------

group spc type	1 2
7143 atoms in group spc

# ----------------- Minimize -----------------
# command  	etol    ftol   maxiter  maxeval
#minimize	1.0e-6	1.0e-8	200	2000

# ----------------- Run Section -----------------
# Write initial structure out
dump            icrd all custom 5 system.lammpstrj id mol type x y z ix iy iz
dump_modify     icrd sort id
run             1
WARNING: No fixes defined, atoms won't move (../verlet.cpp:54)
PPPM initialization ...
  G vector (1/distance) = 0.264664
  grid = 36 20 20
  stencil order = 5
  estimated absolute RMS force accuracy = 0.0305652
  estimated relative force accuracy = 9.20461e-05
  using double precision FFTs
  3d grid and FFT values/proc = 29889 14400
Memory usage per processor = 22.2258 Mbytes
Step Temp E_pair E_mol TotEng Press 
    3500    197.23077   -22231.073    1.0268909   -18016.513    14808.357 
    3501    197.23077   -22231.073    1.0268909   -18016.513    14808.357 
Loop time of 0.0589309 on 1 procs (1 MPI x 1 OpenMP) for 1 steps with 7168 atoms

Pair  time (%) = 0.052681 (89.3945)
Bond  time (%) = 0.000465155 (0.789323)
Kspce time (%) = 0.00557399 (9.45852)
Neigh time (%) = 0 (0)
Comm  time (%) = 0.000120878 (0.205119)
Outpt time (%) = 5.10216e-05 (0.0865787)
Other time (%) = 3.88622e-05 (0.0659454)

FFT time (% of Kspce) = 0.00115911 (20.795)
FFT Gflps 3d (1d only) = 2.37906 4.74623

Nlocal:    7168 ave 7168 max 7168 min
Histogram: 1 0 0 0 0 0 0 0 0 0
Nghost:    16243 ave 16243 max 16243 min
Histogram: 1 0 0 0 0 0 0 0 0 0
Neighs:    1.73244e+06 ave 1.73244e+06 max 1.73244e+06 min
Histogram: 1 0 0 0 0 0 0 0 0 0

Total # of neighbors = 1732438
Ave neighs/atom = 241.691
Ave special neighs/atom = 2.01228
Neighbor list builds = 0
Dangerous builds = 0

# Reset the timestep
undump          icrd
reset_timestep  0

# Timestep and Neighbour searching
timestep	2.0
neighbor        2.0 bin
neigh_modify	delay 4 every 1 check yes

# Fixes
fix 		shake spc shake 0.0001 10 0 b 1 a 1
  0 = # of size 2 clusters
  0 = # of size 3 clusters
  0 = # of size 4 clusters
  2381 = # of frozen angles
fix   		npt all npt temp 300.0 300.0 100.0 iso 1.0 1.0 10000.0

# Initial velocity
#velocity	all create 300 432567 dist uniform

# Write out thermodynamic information
thermo_style    custom step temp press vol pe ke evdwl ecoul epair
thermo	        250

# Write out trajectory
dump            cxtc all xtc 250 traj-1.xtc

# Write out velocity
#dump 		1 all custom 1 vel_npt.txt vx vy vz

# Checkpoint files
restart         5000 state_cpt-*.data

# Final run command
run             250000
PPPM initialization ...
  G vector (1/distance) = 0.264664
  grid = 36 20 20
  stencil order = 5
  estimated absolute RMS force accuracy = 0.0305652
  estimated relative force accuracy = 9.20461e-05
  using double precision FFTs
  3d grid and FFT values/proc = 29889 14400
Memory usage per processor = 22.688 Mbytes
Step Temp Press Volume PotEng KinEng E_vdwl E_coul E_pair 
       0    295.35163   -572.52501    111204.97   -22230.046    4213.5327    3866.3269      92835.3   -22231.073 
     250    298.44917   -528.26318    111125.11   -22199.959    4257.7226    3837.2938    92906.978   -22201.532 
     500    300.65118   -557.16932    110886.79   -22230.366    4289.1369    3844.9831    92855.443   -22231.892 
     750    301.41716   -383.31155    110460.17    -22240.36    4300.0645     3935.495    92753.452   -22243.596 
    1000    304.38549   -387.96256    109886.85   -22179.981    4342.4112    3812.2807    92943.187   -22182.479 
    1250    297.28725   -592.22352     109242.4   -22352.453    4241.1466    3787.1967    92797.624   -22356.268 
    1500    299.74726   -592.14316    108570.85   -22361.192    4276.2415     3762.188    92822.906    -22364.58 
    1750    301.88608   -114.95954    107929.75   -22326.465    4306.7542    3926.3589    92686.834   -22328.624 
    2000    310.55527   -170.52688    107369.78   -22421.338    4430.4302    3920.6745    92591.435   -22425.571 
    2250     297.2314    -493.9136    106882.37   -22541.612    4240.3498    3850.3133    92552.767   -22544.612 
    2500    299.90798   -345.96533    106398.47   -22471.043    4278.5344    3902.3443    92576.181   -22474.157 
    2750    304.91475   -520.40629    105894.81   -22578.595    4349.9617    3787.1962    92576.149   -22582.215 
    3000    301.26793   -514.77195    105393.62   -22597.925    4297.9355    3775.9127    92561.449   -22604.103 
    3250    293.74437   -348.09075    104884.62   -22418.672    4190.6032    3783.0417    92736.946   -22423.663 
    3500    301.09888   -428.76755    104384.54   -22646.981    4295.5238    3830.6011    92472.664   -22654.735 
    3750    298.11271   -668.18896    103879.77   -22563.266    4252.9227    3712.0476    92676.047   -22567.774 
    4000    300.10871   -312.45807    103371.66   -22689.167     4281.398    3944.9809    92317.595   -22695.482 
    4250    305.05639   -532.20367     102896.6   -22669.052    4351.9823    3818.0767    92466.563   -22673.617 
    4500    301.94228   -201.59157    102439.97   -22885.205    4307.5559    3999.6695     92068.25   -22891.243 
    4750    303.85758   -231.21766    102038.14   -22722.973    4334.8799    3937.7882     92299.19   -22730.476 
    5000    298.88376   -403.96005     101679.5   -22747.171    4263.9226    3910.7779    92289.461   -22752.999 
    5250    299.96242   -362.26949    101325.84   -22686.173     4279.311    3871.7256    92384.912   -22690.257 
    5500    295.93403   -543.47527    100978.81   -22702.729    4221.8413    3776.6436    92482.024   -22707.234 
    5750    301.22091   -407.21763    100613.86   -22808.075    4297.2647    3871.9393    92273.091   -22814.248 
    6000    303.09522   -324.09092    100241.38   -22657.984     4324.004    3871.9028    92430.702   -22663.489 
    6250    292.90079   -419.55925    99837.992   -22765.166    4178.5687    3927.4305    92265.746   -22772.411 
    6500    300.23805   -810.57986    99405.326   -22837.954    4283.2431    3693.0928    92425.557   -22844.041 
    6750    304.55132   -526.36146    98977.986   -22918.186    4344.7769     3856.236    92188.536   -22925.186 
    7000    306.64233    -292.6749    98583.952   -22700.718    4374.6075    3804.8086    92459.069   -22705.429 
    7250    297.00157   -583.00491     98209.91   -22862.668     4237.071    3794.2705    92305.326   -22869.993 
    7500    300.96257   -374.71651    97869.872   -22931.196    4293.5793    3871.3136    92153.367   -22936.886 
    7750    295.84897   -590.67394     97544.83   -22836.531    4220.6279    3741.2704    92375.423   -22841.819 
    8000    301.48939   -334.91779    97208.339   -22971.864    4301.0949    3858.4939     92130.81   -22978.434 
    8250    300.55865   -172.81173    96899.113   -23051.248    4287.8169    3992.7273     91921.81   -23056.713 
    8500    304.62554   -299.46328    96595.938   -22991.362    4345.8357    3903.4165    92068.693   -22997.696 
    8750    303.68452   -218.74376    96284.768   -22987.373     4332.411    3975.6421    92000.879   -22993.099 
    9000    305.60748   -478.23617    95958.412   -22886.227    4359.8442    3789.4001    92277.998   -22892.573 
    9250    295.10658   -462.74662    95619.152   -22970.206    4210.0368    3850.3897    92145.402   -22975.774 
    9500    297.80013   -314.53496    95288.673   -22868.924    4248.4634    3854.1407    92238.476   -22874.685 
    9750    298.56391   -395.07274      94967.9   -22961.725    4259.3595    3864.4826    92137.918   -22965.944 
   10000    301.59976   -490.05722    94654.313   -22978.269    4302.6694    3809.1663    92166.419   -22984.138 
   10250    303.69103   -371.90934    94358.889    -22908.57    4332.5039    3839.7066    92205.594    -22916.03 
   10500    305.70102   -253.71983    94060.302   -22877.782    4361.1787    3865.6425    92209.259   -22883.596 
   10750      294.968   -477.03405    93764.313   -22926.473    4208.0598    3791.7125    92238.715   -22931.697 
   11000    306.36285    6.7451197    93467.604   -22872.925    4370.6204    3965.7509    92127.464   -22876.949 
   11250    297.97702    -257.4762    93188.094     -22913.1     4250.987    3856.7619    92190.586    -22919.59 
   11500    299.09284   -127.11139    92901.606   -23034.291    4266.9054    3994.5248    91929.536   -23040.107 
   11750    299.14004   -396.86818    92625.682   -22829.237    4267.5788    3818.1885    92314.382   -22838.167 
   12000    303.07513   -331.02384    92316.375   -23033.024    4323.7173    3918.5153    92006.691   -23038.898 
   12250    301.03518   -372.56663    92009.719   -22903.445    4294.6151    3836.5343     92225.57   -22909.459 
   12500    300.60105   -300.41227    91692.635   -23118.777    4288.4217    3962.5701    91889.128   -23124.443 
   12750    292.08424   -181.66426    91368.584   -23018.377    4166.9195     3962.861    91990.503   -23024.046 
   13000    294.39755   -446.65541    91058.186   -22990.386    4199.9217    3822.4861    92154.432   -22996.461 
   13250    302.95492   -181.84339    90752.934   -23137.084    4322.0024    3960.9971    91864.194   -23142.881 
   13500     297.3217    -305.4977    90461.948   -22945.852     4241.638    3806.5583    92209.811   -22954.038 
   13750    296.97979   -671.01135    90178.271   -22871.451    4236.7603    3667.0081    92427.812   -22877.612 
   14000    305.70675    40.937628    89909.559   -23096.826    4361.2605    4020.5477    91846.478   -23101.039 
   14250    304.43456   -345.27873    89677.775   -23219.811    4343.1111    3946.4636    91798.562   -23225.075 
   14500    301.87291   -575.66234    89433.255   -23099.004    4306.5663    3830.4893    92042.498   -23105.534 
   14750    305.75548   -325.59678    89168.549   -23082.397    4361.9556    3924.0386    91962.938    -23090.52 
   15000    300.86921   -177.86058    88896.164   -22982.545    4292.2473    3886.1118     92093.12   -22989.647 
   15250    298.29201   -546.63341    88616.865   -23154.753    4255.4806    3852.8815    91958.315   -23161.633 
   15500    299.84043   -141.85078     88338.03   -22920.258    4277.5706     3897.315    92148.701   -22929.517 
   15750    300.27341   -236.49955    88058.872   -23062.813    4283.7476     3943.247     91957.98   -23070.539 
   16000    300.56533   -446.16469    87781.589   -23200.226    4287.9122    3932.0189    91840.893   -23206.254 
   16250    296.87961   -247.61615    87500.424   -23080.157    4235.3312    3976.5547    91902.203   -23085.897 
   16500    296.81829   -308.60904    87227.016   -23115.556    4234.4563    3943.6204    91909.391   -23122.456 
   16750    299.24979    -428.5927    86952.835   -22991.442    4269.1444    3843.7968    92141.382   -22998.144 
   17000     308.3506   -538.01007    86673.216   -23079.056    4398.9781     3765.418    92126.595   -23086.952 
   17250    308.19094   -37.595645    86394.911    -23114.46    4396.7003     3997.986    91860.534   -23122.199 
   17500    304.20371   -176.24414    86130.336   -23105.268    4339.8179    3984.2334    91870.534    -23116.15 
   17750    297.40795   -570.11152    85886.064   -23177.712    4242.8685     3852.395    91939.893   -23185.513 
   18000     297.0976   -514.00561    85639.718    -23156.85     4238.441    3823.5663    91983.528   -23165.488 
   18250    300.60842   -488.62204    85411.532   -23234.624    4288.5268    3870.5553    91860.394   -23243.344 
   18500    301.54627   -253.59282    85192.393   -23196.665    4301.9063    3926.6078    91843.526    -23202.94 
   18750    299.83408   -229.52358    84992.842   -23103.099      4277.48    3902.9626    91967.179   -23112.477 
   19000    300.90547   -631.14667    84800.421    -23226.06    4292.7646    3788.7867    91949.712   -23232.383 
   19250    305.27354    99.369648    84587.596   -23193.654    4355.0802     4076.093    91703.002   -23201.553 
   19500    306.29649   -393.51989    84383.032    -23178.77    4369.6738    3905.0481    91892.187   -23185.358 
   19750    300.18933   -365.81292      84160.5   -23111.387    4282.5481    3908.2555    91953.036   -23117.254 
   20000    303.33074   -175.68598    83920.704   -23229.913    4327.3639    3992.7553     91749.68   -23236.997 
   20250    304.34236    -114.6364    83686.225   -23223.054    4341.7958    4012.8494    91732.133   -23227.872 
   20500    298.64038   -403.47915    83443.421   -23073.083    4260.4505    3868.7876    92021.609   -23079.058 
   20750    299.70708   -273.42855     83176.21    -23134.39    4275.6682    3927.4022     91909.22   -23139.095 
   21000    292.93742   -366.13322    82893.578   -23076.819    4179.0912    3889.2073    92012.163    -23083.86 
   21250    300.01917   -524.35092    82606.557   -23181.309    4280.1205    3879.8219    91913.849   -23184.612 
   21500    308.95687    -110.3816      82319.5     -23170.1    4407.6272    3998.5997    91813.306   -23175.378 
   21750    301.26798   -396.76151    82051.076   -23081.453    4297.9362    3876.3201    92013.332   -23088.101 
   22000    301.52496    -566.3375    81768.632   -23254.515    4301.6024    3863.4409    91854.769   -23258.708 
   22250    295.95803   -376.88039    81476.793   -23201.531    4222.1836    3968.6817     91807.39   -23206.487 
   22500    298.92066   -270.36587     81187.18   -23207.235     4264.449    3974.5724    91798.509    -23211.27 
   22750    296.80432   -314.51584    80913.193   -23150.514    4234.2569    3913.6101    91907.244   -23157.082 
   23000    302.98625   -272.76341    80660.998   -23109.785    4322.4494    3914.3234    91952.181   -23118.565 
   23250    302.28417   -366.06658    80414.393   -23185.771    4312.4335     3840.878    91954.598   -23190.395 
   23500    303.86503   -418.80822    80156.382   -23132.666    4334.9862    3817.4494    92029.743   -23139.593 
   23750    301.40599   -214.49509     79897.26   -23286.352    4299.9051    3950.4709    91737.997     -23296.5 
   24000    300.72551   -75.907047    79656.807   -23275.628    4290.1973    4025.6367    91675.285   -23284.659 
   24250    300.20999    -546.6515    79435.882   -23248.597    4282.8428    3847.7057     91873.59   -23255.303 
   24500    293.66398   -208.85474    79194.562   -23310.623    4189.4564    4023.9845    91648.176   -23316.989 
   24750    292.61023   -405.87557    78948.094   -23334.008    4174.4234     3962.759    91684.484    -23342.58 
   25000    294.89472   -376.06457    78697.245   -23192.278    4207.0143    3890.4496    91889.711   -23198.483 
   25250    305.02638   -573.91347    78457.579    -23312.95    4351.5542    3866.7176    91805.043   -23318.975 
   25500     296.3486   -364.75964    78207.332   -23205.529    4227.7557    3881.6238    91902.583   -23212.064 
   25750    296.48848   -409.52099    77937.981   -23361.728    4229.7512    3937.2948    91681.756   -23368.284 
   26000     293.5959   -364.55826    77675.577   -23380.277    4188.4852    3938.3471    91663.124   -23387.169 
   26250    296.79928   -591.75471    77408.843   -23338.938    4234.1851    3856.9129    91786.167   -23343.871 
   26500    300.98711   -378.55172    77146.196   -23483.145    4293.9293    3935.7342    91569.266   -23488.229 
   26750    301.32223   -75.251632    76914.194   -23398.575    4298.7103    4025.6983    91555.123   -23403.997 
   27000      302.401   -54.491345    76727.015   -23351.201    4314.1001    4015.2736    91615.376   -23358.174 
   27250    303.89024   -254.30637    76558.205   -23423.418    4335.3459     3970.991    91588.732   -23432.033 
   27500    299.54065   -540.61633    76400.376    -23435.92     4273.294    3872.1894    91681.498   -23441.364 
   27750    297.93133   -303.36221    76257.187    -23519.17    4250.3351    3961.8665    91507.358   -23525.141 
   28000    299.66764   -354.35122    76113.297   -23416.759    4275.1055    3885.1647    91688.829   -23419.897 
   28250    297.01981   -118.15173    75956.263   -23440.024    4237.3312    3997.1671    91542.115   -23447.077 
   28500    295.03522    76.497753    75798.827   -23358.786    4209.0187    4013.9724    91606.954   -23366.411 
   28750    299.67426     168.9913    75668.362   -23348.456       4275.2    4019.5682    91609.164   -23355.548 
   29000    303.39038     -126.959    75543.565   -23365.802    4328.2147    3916.5921    91699.405   -23372.865 
   29250    296.63889    -80.16021    75415.945   -23451.252    4231.8969    3997.4905    91539.468   -23456.973 
   29500    297.90327   -459.53979    75310.048   -23546.122    4249.9348    3909.8294    91529.305     -23551.7 
   29750    297.80021     289.6872    75201.841   -23427.375    4248.4645    4063.0772    91491.847    -23433.06 
   30000    305.78016    29.390274    75099.293   -23506.878    4362.3078    3999.5956     91484.27   -23511.624 
   30250    301.64077   -270.42846    75009.552   -23400.516    4303.2546    3859.2503     91729.59   -23407.292 
   30500    298.16978   -463.42912    74925.911   -23531.486    4253.7368    3848.8692     91605.67   -23535.996 
   30750    301.15855    3.0029237    74839.447   -23487.082    4296.3751    3953.4633    91546.935   -23491.335 
   31000    296.85607    178.55021    74765.105   -23386.099    4234.9952     3989.432    91615.124   -23389.318 
   31250    296.53417   -324.47446    74711.192    -23454.53     4230.403    3836.0785    91698.023   -23458.007 
   31500    298.74328    -69.56719    74658.059   -23559.986    4261.9186    3973.5485    91456.801   -23562.995 
   31750    295.92889    1.5441351    74607.853   -23485.609     4221.768    3969.3268    91534.737   -23491.026 
   32000    305.42686   -352.63284    74559.225   -23493.202    4357.2675    3838.1922     91654.01   -23497.849 
   32250    298.89913    270.32064    74494.288   -23402.254    4264.1419    4006.6359    91578.258   -23408.443 
   32500    301.05277    334.32933    74439.395   -23533.009    4294.8661    4065.9649    91387.584   -23540.606 
   32750    298.33794    267.25752    74417.916   -23409.516    4256.1359    4002.8202    91579.181   -23416.094 
   33000    295.81241    110.13533    74409.354   -23401.715    4220.1063    3954.7497    91624.341    -23408.77 
   33250    294.87682   -66.803554    74425.022   -23423.819    4206.7589    3903.0624    91649.486   -23430.153 
   33500    295.92515   -162.05656    74432.855   -23651.281    4221.7146    3993.9869    91345.027   -23655.547 
   33750    302.19674   -21.425348    74427.045   -23507.941    4311.1861    3968.3542    91510.573   -23514.054 
   34000    303.40297   -48.520764    74434.441   -23534.768    4328.3944    3960.5541    91497.937   -23541.217 
   34250    302.31213    32.245219    74464.278   -23422.518    4312.8324      3938.01    91629.464   -23427.144 
   34500    293.19113      173.023     74504.88   -23478.453    4182.7106    4009.3748    91501.427   -23483.724 
   34750    301.78269    39.562154    74563.486   -23533.287    4305.2792     3983.645    91467.677    -23540.68 
   35000    298.69572    424.63985     74642.74   -23448.516      4261.24    4071.1333    91469.546   -23454.434 
   35250     297.9929    82.109649    74742.345   -23512.943    4251.2135    4028.6542    91443.011   -23520.045 
   35500    302.02729    186.14783    74835.713   -23600.227    4308.7687    4078.5972    91298.237   -23606.469 
   35750    301.73628    -213.0169    74923.605   -23494.622    4304.6171    3917.3934    91574.898   -23500.005 
   36000    300.05257   -204.64278    74998.587   -23467.219     4280.597     3896.536    91625.386   -23473.484 
   36250    301.05985   -330.44637     75032.69   -23554.138     4294.967    3927.8049    91499.695   -23561.169 
   36500    294.92336   -183.77832    75042.673   -23485.737     4207.423    3955.8594    91548.496   -23493.992 
   36750    300.60584   -55.625069    75049.513   -23429.263      4288.49    3960.1502    91594.329   -23436.969 
   37000    292.69581    360.99025    75057.828   -23511.356    4175.6443    4124.5483    91353.274   -23515.675 
   37250     298.0656   -315.95509    75079.746   -23422.888    4252.2506    3855.6695    91707.678   -23431.992 
   37500    299.59809    346.27163    75085.821     -23399.7    4274.1134    4079.0812    91498.477   -23413.376 
   37750    295.30565    43.326008    75095.678    -23582.15    4212.8768    4068.5527    91340.031   -23592.282 
   38000    303.80762   -261.11863    75101.551   -23514.791    4334.1672    3915.2743    91562.022   -23523.167 
   38250    299.64045   -378.57616    75110.903   -23501.561    4274.7176    3895.8436    91586.773   -23512.803 
   38500    304.43816   -529.36955    75126.433   -23610.731    4343.1626    3873.5273    91497.805   -23620.397 
   38750    302.95459    219.34889    75140.185   -23417.682    4321.9978    4073.5363    91493.889   -23426.028 
   39000    299.33602    25.848998    75162.037    -23457.36    4270.3747    4011.2499    91520.814   -23465.178 
   39250    302.42013   -331.08754    75179.851   -23502.532    4314.3731     3911.198    91565.771   -23511.788 
   39500    290.44587   -177.84117    75184.752   -23486.484    4143.5463     3947.668    91548.313   -23495.433 
   39750     297.7509   -581.72766      75169.4   -23308.112    4247.7611     3739.639     91933.89   -23315.833 
   40000    298.21392    152.44956    75141.308   -23376.515    4254.3666    3995.8322    91608.033   -23384.048 
   40250    297.95815   -113.79725    75112.658   -23513.713    4250.7178    3990.7231    91476.178   -23524.863 
   40500    297.50432    136.95938    75087.637   -23264.112    4244.2434    3932.4717    91788.854   -23273.122 
   40750    299.29205   -164.93275    75060.305   -23455.274    4269.7474    3943.0517    91585.157   -23464.702 
   41000    299.95571   -73.505753    75009.219   -23453.789    4279.2152    3919.0715    91615.217   -23461.271 
   41250    299.64151   -83.213524    74974.487   -23526.188    4274.7328    3976.9575    91485.475   -23534.579 
   41500    298.73705   -131.83085    74926.712   -23547.103    4261.8297    3969.8407    91469.181   -23555.212 
   41750    301.77147    21.897466    74875.253   -23583.733    4305.1191    4047.4594    91356.112   -23589.441 
   42000    301.76316   -163.39485    74825.942    -23592.36    4305.0006    3983.5603     91410.64   -23597.048 
   42250    295.88712   -136.49048    74778.658   -23414.276     4221.172    3911.3789    91660.888   -23421.352 
   42500    302.45646   -647.57345    74725.037   -23522.443    4314.8913    3761.9458     91691.09   -23533.526 
   42750    297.33692     583.1154    74656.592   -23499.677    4241.8551    4144.1325    91348.043   -23505.883 
   43000    298.69006   -283.73945    74623.228   -23541.101    4261.1592    3856.7366    91591.189   -23547.506 
   43250    298.65273    118.15016    74591.354   -23491.965    4260.6267    4016.4658    91471.504   -23499.305 
   43500    306.00559    -9.683257    74572.005   -23472.962    4365.5238    3939.0807    91574.368   -23480.714 
   43750    300.46916    385.71104    74575.627   -23517.508    4286.5402    4113.3213     91348.87   -23524.327 
   44000    299.36661    6.0317142    74596.941   -23433.498     4270.811    3932.2214    91621.134   -23440.232 
   44250    306.06246    321.40145    74643.009   -23540.837     4366.335    4121.3544    91325.165   -23547.806 
   44500    299.11274   -213.82551    74703.464   -23523.195    4267.1892    3905.4692    91554.993   -23530.442 
   44750    301.18387    -72.50872    74764.115   -23466.965    4296.7363    3946.7535    91572.585    -23472.33 
   45000    297.08772   -580.35884    74816.084   -23611.651    4238.3001    3834.9242    91533.351    -23615.98 
   45250    298.06759    301.62419    74843.403   -23624.083     4252.279    4156.8152    91209.482   -23628.516 
   45500    292.79053   -367.42488    74864.853   -23506.276    4176.9956    3872.9204    91605.616   -23512.492 
   45750    296.30456   -289.82393    74868.663   -23431.093    4227.1273     3857.141    91698.641   -23435.929 
   46000    299.34803   -347.09122    74854.237   -23491.555     4270.546    3862.3793    91628.914   -23499.474 
   46250    299.06446   -68.869581    74840.971   -23516.828    4266.5005    3984.7674     91481.44   -23525.171 
   46500    300.58787    45.410047    74829.037   -23523.045    4288.2337    3990.5956     91472.41   -23529.209 
   46750    303.54647    145.33465    74823.283    -23427.59    4330.4416    4013.9661    91539.535   -23434.978 
   47000    302.51522   -138.47982    74835.889   -23484.189    4315.7296    3920.9568    91581.351   -23491.052 
   47250    299.96893    14.708057    74834.848   -23480.302    4279.4039     3973.476    91540.421   -23485.002 
   47500    308.38667    324.23217    74826.837   -23338.388    4399.4926    3999.5312    91641.722   -23344.582 
   47750    298.14723    9.9712285    74842.928   -23567.872    4253.4151    4012.0421    91406.829   -23576.454 
   48000     301.1532   -186.21702     74883.83   -23401.674    4296.2988    3856.8932     91731.51   -23407.925 
   48250    299.32031   -31.263127    74923.613   -23403.596    4270.1505    3935.4541    91636.394   -23414.608 
   48500    297.83878    20.921542    74957.533   -23515.409    4249.0148    3987.2456    91486.063   -23523.089 
   48750    288.02028    249.27086    75017.591   -23437.674    4108.9425    4094.6394    91449.617    -23446.98 
   49000    300.74103   -169.14335    75097.233   -23348.572    4290.4187    3881.7028    91749.598   -23354.666 
   49250    299.22806   -14.438624    75172.655   -23389.055    4268.8344    3951.4088    91643.923   -23396.337 
   49500    298.52709    165.87376    75241.618   -23438.267    4258.8343     4049.618    91496.565    -23445.25 
   49750    301.11592   -336.85053    75287.563   -23360.701     4295.767     3852.999    91770.211   -23368.765 
   50000    299.75432   -96.958754    75318.417   -23376.462    4276.3421    3914.2021    91690.572   -23385.923 
   50250    300.58961    1.0777274     75344.39   -23447.738    4288.2585    3961.0488    91576.035   -23457.045 
   50500    301.33384   -426.82163    75361.085   -23406.853    4298.8759    3842.6376    91737.896    -23416.54 
   50750    299.12956   -56.533891    75341.355   -23554.934    4267.4292    4052.5713    91370.509   -23565.106 
   51000    295.69221   -231.75388    75298.403   -23416.617    4218.3915    3914.7814    91646.125   -23425.496 
   51250    304.57073   -549.58757    75232.591   -23473.851    4345.0538    3755.0519    91747.007   -23483.629 
   51500    293.30045   -605.70154    75137.543     -23485.3    4184.2702    3788.9554    91713.175   -23491.234 
   51750    301.11532   -15.356309    75023.447   -23303.383    4295.7583     3887.311    91788.176   -23310.253 
   52000    298.14747    126.48256    74915.401   -23483.967    4253.4185    4008.9177    91493.256   -23488.711 
   52250    298.11163   -175.59321    74813.622   -23468.762    4252.9073    3934.5265    91590.675   -23474.997 
   52500    294.10381   -17.286326    74709.071   -23606.556    4195.7311    4017.0987    91362.024   -23611.763 
   52750    302.38944   -193.96412    74608.946     -23588.9    4313.9352    3946.9224    91454.178   -23596.148 
   53000    298.75991    335.52972    74531.072   -23545.334    4262.1558    4117.5361    91320.464   -23552.463 
   53250    295.34706    32.183275    74485.719   -23557.317    4213.4675    4001.6238    91431.704   -23563.387 
   53500    302.95881    178.62113    74456.028   -23643.709    4322.0579    4057.7406    91288.259    -23648.48 
   53750    299.25645   -61.152952    74438.239   -23560.904    4269.2394    3964.4232    91462.114    -23569.34 
   54000     299.8305    456.89602    74430.967   -23573.026    4277.4289    4141.3682    91261.977   -23581.627 
   54250    294.22078   -90.472408    74470.047   -23501.087    4197.3998    3940.4654    91546.348   -23509.373 
   54500     300.9526   -288.26896     74522.72   -23543.064     4293.437    3897.5559    91550.443   -23550.264 
   54750    296.11649    141.04863    74577.183   -23520.442    4224.4443      4030.65    91435.759    -23524.63 
   55000    297.54475   -76.627147    74637.738   -23553.887    4244.8201     3967.003    91465.616   -23561.745 
   55250    301.18201   -186.79901    74710.242   -23508.567    4296.7097     3918.644    91552.135   -23516.942 
   55500    300.49578    272.93456    74787.305   -23376.768      4286.92    3980.9943    91615.459   -23385.749 
   55750    303.84235     183.9586    74877.981   -23498.029    4334.6626    4020.2017     91464.13   -23506.001 
   56000    299.33817   -174.83704    74972.646   -23575.529    4270.4054    3977.9799    91431.176   -23583.556 
   56250    298.40551    89.041359    75048.653   -23447.479    4257.0998    4024.2986    91518.036   -23457.161 
   56500    299.27523   -45.087063    75113.578   -23488.592    4269.5074    3964.9151    91529.595   -23496.199 
   56750    307.54356   -6.2401799    75159.778    -23475.42    4387.4647    3980.6076    91528.982   -23484.905 
   57000    301.93661    79.396108    75173.038    -23471.54    4307.4751    4022.8936    91496.522   -23475.577 
   57250    301.94319   -114.19488    75169.474   -23589.709     4307.569    4025.7765    91372.422   -23598.233 
   57500    303.38576    -350.5189    75159.353    -23411.98    4328.1489    3867.0532    91706.023   -23417.776 
   57750    297.21075   -405.53041    75114.353   -23448.536    4240.0552    3850.5502    91679.886   -23456.337 
   58000     303.4793    175.29411    75047.949   -23449.861    4329.4833    4020.3184    91504.253    -23461.59 
   58250    302.69049   -72.038645    74997.194   -23385.133      4318.23    3909.7008    91684.916   -23392.537 
   58500     302.3166    -4.884757    74931.645   -23464.193    4312.8961    3985.3399    91526.765   -23472.008 
   58750    304.76495    152.76288     74834.64   -23515.347    4347.8245    4017.8599    91452.438   -23520.551 
   59000    303.70115    159.16311    74716.032   -23569.677    4332.6483    4013.7424    91398.904   -23576.902 
   59250    297.05722    203.88692    74590.444    -23474.22    4237.8649    4035.3237    91469.869   -23483.832 
   59500    303.45859    81.586868    74463.756    -23444.86    4329.1879    3954.6223    91582.174   -23449.221 
   59750    297.91949    18.244993    74368.687   -23503.844    4250.1662    3949.8733    91528.026   -23511.571 
   60000    295.16587   -201.29168    74300.047   -23587.186    4210.8826    3930.5214    91469.345   -23592.308 
   60250    293.71214   -65.779391    74267.929   -23444.284    4190.1435    3903.2748    91635.585   -23450.738 
   60500    300.41332   -312.73041    74262.346   -23496.513    4285.7435    3856.8162    91638.625   -23503.985 
   60750    300.40257    54.755923    74273.017   -23426.432    4285.5902    3910.1086    91641.993   -23431.439 
   61000    295.85304   -338.65536    74287.867   -23677.757    4220.6859    3926.3577    91384.129    -23683.47 
   61250    301.23449    316.17922    74298.974   -23626.538    4297.4584    4110.9162    91251.993   -23634.937 
   61500    301.70327    246.74444    74329.264    -23573.25    4304.1461    4071.0813    91337.899    -23583.47 
   61750    298.93921   -393.97419    74386.804    -23599.33    4264.7137    3869.4081    91515.321   -23610.089 
   62000     298.4125    14.655041    74449.721   -23537.796    4257.1995    3985.7959    91452.385   -23544.295 
   62250    298.14622   -61.176141    74518.679   -23496.211    4253.4007    3962.0431     91528.08   -23505.171 
   62500    298.09177   -75.640227    74570.958   -23402.228    4252.6239     3906.085    91680.407   -23411.692 
   62750    303.49151     156.1844    74619.659   -23547.028    4329.6574    4031.4716    91404.539   -23554.085 
   63000    297.94865    165.08686    74691.124   -23486.858    4250.5823    3993.7061    91506.243   -23494.531 
   63250    298.82393   -297.35895    74756.439   -23606.378    4263.0691    3920.9837    91459.024    -23610.64 
   63500     293.8673   -304.59127    74815.179   -23477.238    4192.3569    3906.2514    91597.608   -23482.549 
   63750    295.56018   -453.55361    74858.278   -23487.366    4216.5079    3862.4439    91630.304   -23496.363 
   64000    306.54809    255.77963    74872.209   -23327.196    4373.2632    3953.3074    91710.743   -23331.606 
   64250    299.49841   -177.21178    74895.331   -23574.772    4272.6912    3955.5398    91461.864   -23579.708 
   64500     305.1952    347.46867    74905.943   -23471.353    4353.9627    4091.4553    91424.207    -23478.76 
   64750     295.4827   -168.75307    74938.364   -23417.876    4215.4026    3877.5549    91687.251   -23422.434 
   65000    297.30475   -142.90344    74971.884   -23538.727    4241.3963    3975.4785    91472.539   -23543.067 
   65250    294.56509   -623.15782    75003.099   -23450.514    4202.3118    3770.6898    91761.799    -23457.39 
   65500    299.42718   -85.571067    74994.959   -23442.956    4271.6751     3956.317     91588.58   -23449.265 
   65750    301.91623   -89.774606    74961.113   -23465.639    4307.1844    3920.4258    91605.253   -23469.427 
   66000    297.44351    141.10209    74923.455     -23480.2    4243.3758    4013.1635    91485.343   -23486.673 
   66250    299.85244    123.50813    74889.627   -23441.228    4277.7419     4005.373    91542.175    -23447.72 
   66500    295.49942    10.197632    74865.368   -23497.818    4215.6411    3996.9074    91494.463   -23501.301 
   66750    300.13392   -100.47794    74828.502   -23394.502    4281.7576     3910.285    91679.608    -23400.38 
   67000    294.00349    144.94291    74761.436   -23582.759    4194.2999    4076.9384    91326.966   -23588.849 
   67250    303.52194    408.20846    74691.527    -23391.86    4330.0917     4081.573    91514.768   -23395.541 
   67500    305.10294     63.90866    74631.351   -23478.703    4352.6464     3958.716      91543.9    -23482.74 
   67750    294.07726    192.84252    74601.071   -23428.428    4195.3523    4015.1844    91533.966   -23432.059 
   68000    305.18008   -178.63192    74585.608   -23444.888    4353.7469    3871.1277    91678.113   -23450.346 
   68250     301.7612    147.65407    74545.554   -23677.766    4304.9726    4093.3073    91227.515   -23681.336 
   68500    296.67753    116.63481    74542.445   -23502.009    4232.4482    4005.5743    91480.238   -23505.421 
   68750    299.98208   -8.9478662    74573.041   -23439.356    4279.5914    3928.3293    91614.689   -23445.297 
   69000    296.02789   -14.204654    74609.659   -23484.963    4223.1803    4006.3632    91495.994     -23489.9 
   69250    300.72612   -198.80324    74630.856   -23461.356     4290.206    3917.3789    91611.853   -23465.172 
   69500    297.71101   -217.37064    74640.509       -23560    4247.1919    3915.3231    91514.468   -23565.662 
   69750    299.27676   -57.916848    74642.316   -23471.823    4269.5292    3969.7918    91543.792   -23476.233 
   70000    297.95135    307.82092    74634.402    -23410.29    4250.6207    4047.7728    91523.562   -23415.989 
   70250    298.78869    178.33176    74642.368   -23529.986    4262.5664    4046.7436    91413.277   -23534.871 
   70500    300.01193   -52.648964    74672.124    -23440.96    4280.0173    3925.7523    91618.934   -23446.791 
   70750    299.49426   -150.43975    74699.117   -23433.116    4272.6321    3916.6457     91634.28   -23440.517 
   71000    300.62883    526.78547    74721.669   -23432.247    4288.8181    4129.6179    91429.927   -23436.957 
   71250    298.39248    203.33385    74776.076   -23493.433    4256.9139    4046.7547    91450.101   -23500.581 
   71500    300.57215   -64.603777    74843.785   -23474.632    4288.0094    3976.2754    91534.283   -23479.039 
   71750    298.73825    408.01775     74899.94   -23525.461    4261.8468    4127.8876    91332.939    -23530.12 
   72000    301.54839    -69.91735    74992.868   -23372.175    4301.9366    3933.3131    91682.334    -23378.56 
   72250    296.69219   -179.26975    75101.675   -23533.063    4232.6574     3971.368    91483.798   -23540.317 
   72500    299.36292   -291.33829     75213.11   -23492.868    4270.7583    3906.7962    91585.398    -23497.57 
   72750    300.71743   -37.506227    75321.454   -23492.926     4290.082    4001.8659    91493.328   -23499.824 
   73000    295.45254   -10.528954    75420.439   -23473.204    4214.9722    4018.1822    91503.324   -23479.025 
   73250    295.47552   -71.845493     75523.79   -23511.668    4215.3001     4008.261    91465.344   -23518.349 
   73500    301.81251   -114.00475    75605.889    -23473.73    4305.7046    4004.5248    91507.932   -23479.665 
   73750    299.33893   -446.22841    75659.433   -23430.333    4270.4162    3858.8835     91700.19   -23434.503 
   74000    304.25025    99.274559    75689.977   -23475.977    4340.4819    4041.4333    91474.128   -23481.978 
   74250    295.88365   -70.457108    75707.883     -23578.2    4221.1225    4059.4597    91345.317   -23586.372 
   74500    297.20989   -238.20807    75696.796   -23419.442    4240.0429    3936.3926    91627.697   -23424.525 
   74750    297.65205    -33.01893    75648.415   -23403.856    4246.3508    3989.5623    91591.367   -23410.398 
   75000    297.14136    7.8463831    75574.287   -23393.188    4239.0653    3982.3687    91611.015   -23399.284 
   75250    302.34132    231.95005    75474.546   -23295.614    4313.2488    4012.4324    91671.025   -23302.321 
   75500    303.50202    380.11808    75346.117   -23487.415    4329.8075    4131.4976    91367.116   -23492.364 
   75750       303.65     202.7195    75199.782   -23537.036    4331.9185    4101.0516    91344.157   -23544.865 
   76000    301.25092   -7.2702729    75064.587   -23375.846    4297.6929    3934.3109    91682.739   -23380.186 
   76250    300.61373    22.920347    74917.868   -23533.011    4288.6027    4007.5192     91442.68   -23539.281 
   76500    296.25418   -33.644439     74785.22   -23543.282    4226.4086    3992.0613    91457.458   -23547.746 
   76750    307.85009    330.99737      74666.3   -23465.838    4391.8376    4043.1026    91476.811   -23468.925 
   77000    304.23157   -96.388089    74566.393   -23476.251    4340.2153    3938.6293    91570.104   -23483.912 
   77250     297.5853    230.00305    74465.697   -23479.849    4245.3985    4042.0175     91466.98   -23485.766 
   77500    295.61914   -94.965884    74383.271   -23428.325    4217.3491    3898.0856    91655.046   -23434.441 
   77750    307.27114   -3.0543612    74310.671   -23479.098    4383.5783    3930.9648    91575.744   -23489.314 
   78000    302.16376    150.42865    74259.788   -23491.904    4310.7156    4000.9909    91493.485   -23497.383 
   78250    301.58283    644.83114    74244.962   -23587.449     4302.428    4180.5351    91221.196   -23590.862 
   78500     303.7665    427.00179    74280.019   -23495.414    4333.5806    4081.2098    91410.492   -23500.686 
   78750    298.11929    313.83068    74361.999   -23663.632    4253.0165     4142.758    91179.574   -23669.574 
   79000    298.63049    81.284272    74485.892   -23477.313    4260.3095    3990.3844    91512.787   -23484.226 
   79250    298.72682    49.676885      74637.2   -23620.541    4261.6837    4035.9709    91327.101   -23626.826 
   79500     296.8727    175.11647    74809.986   -23405.733    4235.2326    4009.5084    91567.721   -23412.268 
   79750    295.82141   -82.744481    75008.526   -23406.009    4220.2347      3925.96    91652.076   -23413.609 
   80000    292.84268   -214.72959    75199.229   -23416.121    4177.7396    3918.7607    91648.607   -23421.387 
   80250    297.60303   -98.889469    75375.315   -23380.375    4245.6516    3937.9741    91653.759    -23390.91 
   80500    296.84646   -310.85641     75525.85   -23364.846    4234.8581    3924.2884     91692.22    -23370.86 
   80750    294.91863    288.71864    75655.878    -23400.41    4207.3555    4116.0031    91470.755   -23406.876 
   81000    304.06611   -79.294054    75777.031    -23422.44    4337.8548    3985.0677    91570.061   -23430.209 
   81250    298.95792   -434.17446    75880.055   -23318.998    4264.9806    3848.9243     91815.76   -23324.895 
   81500    300.50325   -411.52064    75926.377   -23387.264    4287.0265    3889.0755    91704.991   -23394.408 
   81750    295.59115   -90.333269    75924.548   -23402.708    4216.9498    3959.7154    91627.446    -23407.79 
   82000    300.81322   -108.47553    75883.152   -23375.431    4291.4485    3987.2276    91623.281   -23380.735 
   82250    303.39557    -11.11726    75806.878   -23362.388    4328.2888    3977.1224     91634.46    -23370.08 
   82500    292.34867   -489.14225    75706.969   -23525.817    4170.6921    3931.6329    91524.137   -23532.649 
   82750    293.30011   -443.94049    75582.844   -23362.447    4184.2654    3849.2377     91775.59   -23369.236 
   83000    303.54821   -810.75111    75405.958   -23438.974    4330.4664    3699.6176    91846.598   -23444.618 
   83250    299.30314    31.673287     75192.49   -23545.068    4269.9056    4056.7613    91389.108   -23550.514 
   83500      301.339    165.19914    74980.131   -23429.483    4298.9494    4013.7222    91537.568   -23436.679 
   83750    299.33764    500.84179    74794.516   -23467.358    4270.3977    4116.9764    91396.834   -23473.431 
   84000    304.56306    69.379179    74662.869   -23528.137    4344.9444    3978.5688    91473.884   -23534.567 
   84250    301.13897   -371.78719    74564.626   -23452.732    4296.0957    3797.8053    91730.541   -23458.483 
   84500    298.60693   -83.572574    74481.984   -23574.578    4259.9733    3959.9891    91455.126   -23581.068 
   84750    301.20354     261.8726    74426.944   -23555.067     4297.017    4094.9223    91335.229   -23559.984 
   85000    299.97779    137.57818    74398.085   -23340.596    4279.5302    3934.6787    91703.448   -23349.699 
   85250    299.39096    165.83004    74389.526   -23545.595    4271.1584    4042.4378    91396.138   -23553.568 
   85500    298.70604    403.21784    74391.058   -23487.228    4261.3872    4057.8271    91438.633   -23493.708 
   85750    292.37079     141.4698     74408.88   -23468.525    4171.0075    4010.1559    91508.265   -23477.869 
   86000    300.57639    278.31339    74438.325   -23542.737      4288.07    4067.5361    91377.344   -23547.137 
   86250    300.54475    176.99258    74497.696   -23505.926    4287.6185    4048.2822    91429.947   -23514.013 
   86500    297.37387     -144.945    74582.996   -23522.749    4242.3822     3938.287    91526.495   -23529.129 
   86750    300.52116    -32.01589    74666.226   -23570.443     4287.282    3968.9633    91448.264    -23576.27 
   87000    306.52549    65.690186    74746.478   -23480.522    4372.9407    4003.4324     91489.46   -23489.528 
   87250    307.02808    210.93971    74828.113   -23446.511    4380.1107    4020.5244    91511.925   -23452.447 
   87500    303.96525    241.73811    74889.924   -23484.645    4336.4159    4057.5021    91448.393   -23489.238 
   87750    299.27006    83.583955     74956.36   -23478.199    4269.4336    4017.4874     91496.06   -23483.912 
   88000    298.45746   -62.194654    75021.909    -23416.08     4257.841     3966.466    91597.812   -23423.219 
   88250    299.08129    5.1742303    75065.069   -23532.811    4266.7406     4010.791    91446.096   -23538.558 
   88500    299.79665   -10.183209    75086.114   -23442.243    4276.9461    3996.3719      91546.3   -23449.967 
   88750    302.14076   -173.81117    75085.704   -23602.036    4310.3876    3970.1838    91415.111   -23608.012 
   89000    300.96524   -211.62499    75065.708   -23609.374    4293.6173    3947.2936    91438.275   -23616.069 
   89250    303.03741   -301.56578    75041.731   -23490.401    4323.1792    3902.0083    91595.935   -23496.648 
   89500    308.43407    149.78108    75006.406   -23549.129    4400.1688    4047.5244    91384.304   -23555.012 
   89750    296.18265    483.05386    74981.135    -23579.52    4225.3881    4194.7059    91215.674   -23584.852 
   90000    295.04841   -68.756198    74978.214    -23565.81    4209.2069    4003.3245    91419.024   -23572.674 
   90250    299.23212    213.48949    74966.521   -23453.642    4268.8923    4052.1462      91477.3   -23460.661 
   90500    302.13268     48.51542    74938.929   -23568.302    4310.2722    4049.0019    91361.125   -23578.013 
   90750    293.95376    12.722049    74902.475   -23464.415    4193.5905     4010.779     91514.93    -23469.99 
   91000    295.52047    15.623734    74851.446   -23544.668    4215.9413     4003.055    91429.688   -23554.952 
   91250    299.00785   -382.84008    74784.046   -23495.426    4265.6929    3892.0078    91595.468   -23503.554 
   91500    297.62759    318.68452    74705.099   -23444.261    4246.0019    4057.6312    91486.638   -23451.699 
   91750    297.32493    194.56557    74647.572   -23521.093    4241.6841    4045.6207    91419.301   -23528.434 
   92000    299.01993   -442.69778    74606.646   -23476.568    4265.8653    3846.4426    91664.346   -23484.026 
   92250    297.07208    9.7001886    74575.168   -23525.992     4238.077    3984.8594    91470.721   -23531.824 
   92500    299.91148     484.4475    74558.686   -23396.868    4278.5843    4070.9592    91517.967   -23402.862 
   92750    299.59866    108.84319    74563.907   -23466.356    4274.1215    3985.0489    91538.966   -23472.723 
   93000    308.39825   -151.34858     74593.36   -23482.374    4399.6578    3910.3114    91595.159   -23491.406 
   93250     300.8326   -94.270693    74642.478   -23479.252     4291.725    3947.2293    91555.079   -23486.793 
   93500    300.34965   -495.25003    74686.374   -23498.038    4284.8352    3809.9532    91671.409   -23506.959 
   93750    298.25692   -84.952098    74726.882   -23492.951      4254.98    3943.6915    91549.384   -23498.102 
   94000    304.53814   -58.740409     74780.93   -23491.987    4344.5888    3964.2176    91534.998   -23496.526 
   94250    295.94456    67.975913    74843.144   -23476.267    4221.9915    4011.0193    91496.686   -23482.499 
   94500    297.07582    344.23893    74910.063   -23536.948    4238.1302    4097.8339    91348.761   -23544.838 
   94750    298.34536     39.90977    74974.135   -23473.857    4256.2417    4017.2165    91498.463   -23482.544 
   95000    302.05367    157.67861    75021.922    -23382.64    4309.1451    3944.8895    91663.808   -23388.811 
   95250    296.62307    101.55342    75061.951   -23374.883    4231.6713    4002.5613    91599.172   -23379.844 
   95500     297.9533   -282.36824    75101.385   -23396.742    4250.6485    3907.1877    91680.686   -23405.299 
   95750     299.8767   -375.39245    75130.689   -23424.459     4278.088    3861.8746    91698.167   -23431.512 
   96000    300.78262    52.366848    75141.705   -23422.906     4291.012    3958.6987    91603.255   -23432.523 
   96250     302.4152    152.47733     75169.35   -23428.962    4314.3026    4024.9698    91533.194   -23433.721 
   96500    303.44324    74.245659    75204.984   -23450.664    4328.9689    4001.8027     91532.01   -23455.014 
   96750    295.97811    41.108885     75242.86   -23464.023    4222.4702    4009.8063    91519.623   -23467.771 
   97000    299.50778   -188.27693    75259.847   -23497.311     4272.825    3937.7851    91546.367   -23503.695 
   97250    302.41984   -156.23724    75257.086   -23473.829    4314.3688    3945.8154    91572.015   -23479.764 
   97500    304.64184    87.959165    75253.767   -23563.585    4346.0683    4053.6559    91360.974   -23571.787 
   97750    298.54523     165.2013    75265.982   -23503.347    4259.0931    4079.9781    91401.238   -23509.993 
   98000    294.86141    166.82451    75285.344   -23390.382    4206.5391    4011.7302    91572.892   -23399.754 
   98250    297.64212   -369.45865    75304.635   -23320.398    4246.2092    3845.9977    91816.463   -23330.838 
   98500    298.83383   -142.69981    75276.443   -23495.286    4263.2103    3962.3059    91525.034   -23504.547 
   98750    296.63445   -162.64278    75223.921   -23191.481    4231.8336    3822.1022    91961.894   -23198.841 
   99000    299.29921     -150.654     75154.38   -23490.901    4269.8494      3966.02    91518.552   -23502.796 
   99250    292.31864    40.735643    75076.073   -23457.491    4170.2636    4037.9069     91482.04   -23472.185 
   99500    304.59298   -176.03969     74997.55   -23409.861    4345.3713    3853.2602    91717.133   -23422.375 
   99750    298.56468   -122.75717    74910.939    -23431.28    4259.3705    3933.7573    91615.636   -23441.497 
  100000    299.86572    152.89093    74829.093    -23395.15    4277.9314    3996.0729    91587.468    -23412.33 
  100250    295.14472    113.75063    74747.342   -23611.449    4210.5809    4073.9107    91290.827   -23620.466 
  100500    302.85028     242.9444    74671.815   -23389.074    4320.5096    4010.4733    91584.499   -23398.757 
  100750    300.36975    17.826866    74595.424   -23433.792     4285.122    3933.5796    91613.798   -23444.589 
  101000    302.67031   -113.89546    74528.887   -23531.121    4317.9422    3954.1149    91497.249   -23538.574 
  101250    303.98589    80.042013    74463.956   -23622.962    4336.7103    4030.4135    91337.346    -23629.31 
  101500    298.20063    53.507314     74408.71   -23450.431     4254.177    3966.8717    91568.838   -23458.032 
  101750    300.70974     116.5384    74367.606   -23465.104    4289.9723    3964.3601    91550.676   -23474.191 
  102000    304.95212    55.646426    74351.625   -23459.265    4350.4948    3937.2126    91585.042   -23467.143 
  102250    297.68346   -53.557899        74348   -23664.458    4246.7989    4016.4038    91298.879   -23676.629 
  102500    306.37481    151.73521    74353.686   -23450.622    4370.7911     3955.552    91573.588   -23459.639 
  102750    298.47212    234.14861    74367.889   -23531.082      4258.05    4050.5766     91403.71   -23543.654 
  103000    300.27833   -95.166369    74407.669   -23307.401    4283.8178    3815.5461    91863.609   -23314.694 
  103250    298.46029   -174.53736    74447.917   -23417.227    4257.8813    3865.2519    91705.631   -23424.794 
  103500    302.12445    -415.3545    74493.369   -23642.714    4310.1548    3882.5255    91466.259   -23650.417 
  103750    303.10218   -436.14303    74531.509    -23549.64    4324.1033    3829.7484    91607.234   -23555.363 
  104000    304.55509    267.35775    74557.282    -23522.66    4344.8308    4039.3654     91426.59   -23530.453 
  104250    290.20445   -240.67706    74597.015   -23530.608    4140.1022    3916.9663    91539.952   -23538.224 
  104500    295.53867    43.480745    74639.644   -23601.085    4216.2011    4035.1748    91351.976   -23608.174 
  104750    297.97505   -227.98879    74696.901   -23534.421    4250.9589    3911.8416    91530.535   -23541.491 
  105000    304.27165    114.51889    74762.294   -23563.942    4340.7871    4038.2906     91380.94   -23571.663 
  105250    299.08172    240.61721    74853.219   -23487.122    4266.7468    4075.2532    91419.669   -23494.777 
  105500    298.90648   -126.08834    74962.589   -23502.869    4264.2468    3945.8821     91529.92   -23510.266 
  105750    296.90508   -158.43606    75061.434   -23484.833    4235.6944    3969.1249    91532.648   -23493.987 
  106000    299.08829    296.71666     75141.81   -23433.262    4266.8404    4081.7936    91466.328    -23442.57 
  106250    298.93616    200.76429    75223.432   -23506.153    4264.6702    4067.1575    91411.397    -23513.93 
  106500    294.49504   -266.20272    75305.006   -23485.485    4201.3124    3902.9805    91594.869   -23493.665 
  106750    294.85313    58.480011    75369.601   -23445.767     4206.421    4004.8143    91532.818   -23452.897 
  107000    292.60794   -136.14465    75415.575   -23531.703    4174.3908    3992.5446    91467.428   -23538.365 
  107250    300.17106    58.544623    75435.581    -23454.89    4282.2875    4016.3492    91517.059   -23462.231 
  107500    298.24249   -85.490372    75443.875   -23495.098    4254.7741    4001.1944    91486.459   -23502.762 
  107750    299.61993    62.148887    75447.804   -23433.544    4274.4249    3970.9868    91576.157   -23440.493 
  108000    301.79111   -230.44822    75439.014     -23426.8    4305.3994    3899.7985     91661.72   -23431.939 
  108250     299.7796   -32.832041    75416.669   -23393.035    4276.7029    3961.7957    91635.576    -23400.29 
  108500    302.72062   -430.51297    75375.814   -23476.339    4318.6599    3853.0364    91661.236   -23481.924 
  108750    303.63844    93.221459    75312.625   -23410.675    4331.7536    3997.6991     91572.54   -23416.989 
  109000    299.41033   -124.85459    75246.882   -23331.416    4271.4347    3893.0681    91764.948   -23334.345 
  109250    291.14904   -238.07996    75145.706   -23613.989    4153.5779    3991.6298    91380.516   -23619.062 
  109500    297.68597   -385.28951    75014.399   -23517.532    4246.8348    3894.7399    91560.959   -23523.165 
  109750    296.18964   -26.022986    74863.707   -23472.359    4225.4879    3991.0949    91513.481   -23479.462 
  110000    296.53545   -57.255292    74702.014   -23337.882    4230.4212    3873.0129    91767.683   -23345.543 
  110250     292.2532    242.15918    74530.706   -23420.195      4169.33    4032.6642    91528.303   -23427.283 
  110500     298.2594    446.72618     74385.29   -23531.636    4255.0154     4100.029    91354.157   -23535.502 
  110750    298.53045    395.54627    74268.659   -23472.341    4258.8823    4044.4351    91463.433   -23478.241 
  111000    302.23692    219.51198    74185.322   -23550.004    4311.7594    4007.4905    91433.778   -23556.426 
  111250    300.93816     425.1658    74137.881   -23562.562     4293.231    4080.0928    91344.638   -23567.861 
  111500    293.11939    82.627326    74119.963   -23545.361    4181.6872    3989.2162    91448.166   -23551.162 
  111750    301.65558   -52.289005    74120.681    -23573.35    4303.4659    3949.4697    91466.847   -23577.715 
  112000    300.73106   -112.25097    74152.624   -23539.466    4290.2765    3896.3522    91543.944   -23546.294 
  112250    303.85047     163.5015    74197.352   -23522.109    4334.7785    4008.6986    91450.889   -23529.507 
  112500    298.50643    361.79052    74277.672   -23432.683    4258.5396    4025.6664    91526.915   -23439.244 
  112750    297.20631    255.58555    74380.739   -23530.981    4239.9918     4051.728    91400.338   -23539.426 
  113000    303.05196   -146.24998    74500.887   -23597.908    4323.3868    3923.5837     91455.17    -23604.75 
  113250    306.93021   -113.54893    74633.697   -23396.812    4378.7145    3872.8906    91721.648   -23402.318 
  113500    295.90629    35.081797    74768.593   -23441.422    4221.4455    3936.2231    91610.197   -23445.599 
  113750    307.70612    154.13961    74901.202   -23450.364    4389.7837    4003.3781    91527.457   -23456.194 
  114000     300.5458   -290.12428    75036.905   -23425.578    4287.6335    3865.9193    91692.765    -23431.71 
  114250    307.22508   -322.38434    75133.306    -23473.48    4382.9211    3831.8052    91681.504   -23479.468 
  114500    298.31033   -40.634303    75193.974    -23454.06    4255.7419    3970.9448    91567.788    -23458.13 
  114750    296.97305   -234.85254    75230.218   -23511.047    4236.6641    3926.7686    91551.631   -23516.276 
  115000    297.30345    -586.8748    75240.766   -23505.209    4241.3777    3795.5152     91676.96   -23512.168 
  115250    297.14493    -2.502109    75220.646    -23364.44    4239.1162     3971.136    91652.421   -23371.057 
  115500    299.19765   -468.79498    75176.861   -23550.054    4268.4006    3889.8872    91547.547   -23554.152 
  115750    302.24771    5.2962235    75112.426   -23538.544    4311.9132    3992.1942    91457.577   -23544.824 
  116000    298.63077     22.45387    75027.459   -23461.091    4260.3134    3996.0979    91519.765   -23468.407 
  116250    303.35716    86.281968    74927.612    -23498.45    4327.7409    4044.6262    91438.928   -23507.311 
  116500    302.11445   -130.59338    74826.096    -23616.35    4310.0121    4013.5678    91356.268   -23623.166 
  116750    298.68132    152.54494    74733.875   -23599.977    4261.0345    4088.3783     91301.51   -23606.388 
  117000    302.64693   -145.05288    74672.825   -23631.063    4317.6086    3972.0715    91388.226   -23636.568 
  117250    297.52762   -153.41165    74616.415   -23465.551    4244.5758    3865.5522    91659.319   -23472.833 
  117500    303.03757   -150.73639     74554.81   -23472.586    4323.1816    3907.2822    91606.179   -23476.014 
  117750    292.58078   -316.76678    74517.238   -23518.155    4174.0033    3879.6468     91583.05   -23521.809 
  118000    296.32577    74.257685    74501.212    -23517.89    4227.4299    3980.2764     91486.01   -23521.459 
  118250    296.60915    350.03594    74496.086   -23440.965    4231.4726    4071.7317    91479.684   -23447.555 
  118500    294.26051   -35.883324    74503.271    -23459.39    4197.9666     3946.809    91577.677   -23463.065 
  118750    295.61431   -290.04056    74532.263   -23477.117    4217.2802    3840.1841    91676.068   -23482.115 
  119000    301.01115    14.649018        74565   -23535.686    4294.2722    3981.3639    91464.831   -23541.551 
  119250    301.08484   -135.47916    74612.563   -23502.586    4295.3235     3932.291    91555.607   -23507.629 
  119500     302.2324   -233.49088    74671.914   -23601.683    4311.6948    3932.5647    91451.101   -23608.361 
  119750    297.17345   -153.02529    74728.173   -23468.026    4239.5231    3944.4817    91579.578   -23475.308 
  120000    303.39248    176.91404    74764.648   -23339.951    4328.2447    3985.7973    91659.529   -23346.253 
  120250    301.64019    489.32588    74798.794   -23564.579    4303.2463     4186.708    91230.974   -23571.835 
  120500    293.45172   -26.710866    74842.189   -23418.022    4186.4283    3943.5278     91621.16   -23427.902 
  120750     299.5285   -236.82974    74892.885   -23489.889    4273.1205    3904.1456    91596.511   -23497.176 
  121000    302.51699    230.67901    74949.072   -23439.055    4315.7549    4042.4069    91508.047   -23446.161 
  121250    300.21367    -267.9658     75005.12     -23549.5    4282.8953    3908.9312    91529.454   -23554.938 
  121500    298.31586   -172.85996    75048.193    -23539.35    4255.8208     3945.439    91502.515   -23544.333 
  121750    298.69709   -216.56865    75090.588   -23441.829    4261.2595    3928.2339    91611.882    -23450.15 
  122000    302.11116   -156.68138    75114.418   -23475.518    4309.9652    3922.0648    91592.223   -23481.002 
  122250    300.68615      -72.436    75128.632   -23515.458    4289.6358    3987.8469    91480.687   -23522.081 
  122500    303.16283    198.61145    75143.729   -23386.132    4324.9684    4001.1327    91603.546   -23390.917 
  122750     298.6157    358.23041    75160.714   -23435.657    4260.0985    4103.5652    91443.611   -23440.997 
  123000    300.08653   -314.67211    75200.199   -23449.356    4281.0815    3853.9002    91682.309   -23455.361 
  123250     298.9275    339.29275    75238.265   -23584.607    4264.5466    4146.5177    91246.896   -23592.395 
  123500     297.2342   -710.52761    75280.904   -23594.844    4240.3897    3840.2288     91550.71   -23600.102 
  123750    299.32799   -7.3997123    75302.614   -23613.841      4270.26     4049.402    91325.578    -23619.14 
  124000    293.13477   -46.222751     75302.53   -23485.129    4181.9066    4013.5111    91489.867   -23491.991 
  124250    295.35938     36.55559    75292.554   -23425.827    4213.6433    4007.4922     91550.78   -23433.214 
  124500    300.10011    -55.40312    75265.199    -23629.44    4281.2752    4061.7803    91293.786   -23636.185 
  124750    302.21988    244.17249    75213.775   -23356.761    4311.5162    4027.4308    91601.208   -23363.979 
  125000    307.15927    209.49479    75156.163   -23404.384    4381.9823    4030.4748    91552.602   -23411.528 
  125250     302.5198   -295.79349    75099.811   -23527.523    4315.7949    3877.1016    91581.337   -23534.827 
  125500    302.59727    57.228497    75021.259   -23580.801    4316.9001    4065.2151    91329.233   -23588.154 
  125750    302.74539    37.697396    74930.648   -23475.415    4319.0132    3995.6571    91511.858   -23482.469 
  126000    302.85915     47.24103    74842.291   -23564.337    4320.6361    4008.6087    91419.341   -23568.894 
  126250    297.02759    299.58478    74766.959   -23462.831    4237.4422    4067.7652    91458.983   -23468.406 
  126500     296.6357    75.949118    74718.672   -23566.832    4231.8514    4048.3367    91372.929   -23571.162 
  126750    301.71638    322.93555    74681.012   -23378.113    4304.3333    4016.9072     91583.25   -23382.625 
  127000    302.11371    370.78816    74659.016   -23614.273    4310.0016    4147.2932    91227.682   -23619.274 
  127250    299.31053   -37.509215    74667.751   -23473.976     4270.011    3924.7296    91590.013   -23478.077 
  127500    302.76322    174.36974    74686.936   -23629.169    4319.2677    4059.0206    91300.927    -23635.71 
  127750    298.85734   -9.3564834    74714.264   -23484.431    4263.5457    3951.5974    91546.032   -23490.644 
  128000    304.00574   -222.05401    74758.651   -23560.543    4336.9935    3899.6831    91516.629   -23567.575 
  128250    302.92777   -165.88286    74807.952   -23482.946    4321.6151    3919.7526    91581.098    -23489.73 
  128500    299.01201   -139.13081    74844.051   -23393.662    4265.7523    3860.6813    91730.202   -23398.624 
  128750    302.70947   -109.76623    74871.028   -23422.819    4318.5008    3916.2753    91643.304   -23429.286 
  129000    295.37319   -185.50821    74896.068    -23335.33    4213.8403    3861.6157    91786.053   -23340.256 
  129250    295.97813    16.049633    74925.747   -23390.145    4222.4705    3985.6652    91616.612   -23396.106 
  129500    296.04899   -205.80974     74958.78   -23499.314    4223.4813    3913.3139    91570.681   -23504.412 
  129750    297.19544    203.77164    74999.386   -23472.454    4239.8367    4060.2249    91459.959    -23478.41 
  130000    298.01229   -65.293902    75033.338   -23586.401    4251.4901     4018.828    91378.393   -23593.613 
  130250    299.66785    13.620522    75064.681   -23495.623    4275.1086    4011.1047    91481.408   -23503.257 
  130500    300.23811    565.61317    75109.713   -23412.966     4283.244    4148.4186    91426.231   -23419.662 
  130750    302.11051   -470.03797    75183.452   -23503.651    4309.9559    3856.3893    91619.322    -23509.54 
  131000    297.97404    149.96783    75242.497   -23531.319    4250.9444    4077.3109    91376.161   -23539.158 
  131250    298.24524   -348.78875    75286.946   -23567.247    4254.8134    3902.5549    91524.251   -23574.093 
  131500    296.63307    270.52177    75316.539   -23410.657    4231.8139      4079.07    91494.252   -23414.619 
  131750    301.14592    70.798626    75340.187    -23363.46    4296.1949     3965.973    91660.073   -23368.433 
  132000    297.24593   -11.724615    75350.131   -23551.741     4240.557    4054.6649    91384.733   -23558.205 
  132250    304.24495    100.91084    75334.093   -23472.162    4340.4061    4020.1213    91497.254   -23479.227 
  132500    303.34989   -188.69394    75308.522   -23429.316    4327.6371    3924.5947    91631.824   -23434.628 
  132750    296.72843   -105.46923    75285.835   -23200.921    4233.1743    3879.9677    91898.093   -23209.859 
  133000    296.82937    207.72082    75256.877   -23433.593    4234.6143    4037.5535    91509.494   -23440.826 
  133250    299.73558    190.62581    75231.282   -23360.458    4276.0747    4043.2857    91579.402   -23366.981 
  133500    304.14715    222.63117    75189.009   -23537.089     4339.011    4108.8022    91333.931   -23543.952 
  133750    296.56141     291.0187    75139.937   -23494.305    4230.7916     4126.944    91357.147   -23503.908 
  134000    292.79839   -176.63736    75078.919   -23528.657    4177.1077    3964.7456    91490.937   -23536.798 
  134250    293.85274   -290.30244    75005.349   -23485.966    4192.1492    3910.5048    91585.164   -23494.306 
  134500    298.40348    187.54407    74919.181   -23486.265    4257.0708    4037.2796    91459.753   -23496.529 
  134750    296.95712   -429.39182    74842.925   -23529.822    4236.4369    3853.5888    91606.736   -23535.223 
  135000    293.79885   -426.55841    74752.822   -23461.604    4191.3805     3840.511    91673.386   -23470.881 
  135250    297.04339   -319.30235    74646.735   -23505.179    4237.6676     3895.477    91591.523   -23511.233 
  135500    300.60134    69.333777    74544.397    -23520.11    4288.4258    3972.5693    91486.849   -23527.367 
  135750     301.7257   -257.82562     74478.84   -23461.477    4304.4662    3864.8552    91656.879   -23468.393 
  136000    293.80074    430.11565    74411.105   -23694.871    4191.4075    4189.8811    91108.057   -23699.976 
  136250    299.02548    528.67688    74361.638   -23745.594    4265.9445     4231.779     91004.39   -23750.335 
  136500    303.80396    113.09997    74338.745   -23578.672     4334.115    4007.0617    91397.534   -23584.523 
  136750    302.58223    70.581664    74328.739   -23551.547    4316.6855    3984.1449     91450.88   -23555.754 
  137000    304.17236    -126.0593    74357.261   -23524.364    4339.3706    3930.3412    91535.402   -23529.235 
  137250    300.08691    158.42031    74408.038   -23554.596    4281.0869    4044.5389     91378.91    -23558.87 
  137500    299.34542    102.44373    74474.071   -23498.843    4270.5087    3995.6184     91497.66   -23503.502 
  137750    301.12954   -131.15735    74530.936     -23517.1    4295.9612    3922.2045    91549.483    -23521.46 
  138000    295.04043    125.95904    74578.222   -23561.336    4209.0931    4036.8715    91381.126   -23566.908 
  138250    305.20367    374.95437    74637.208   -23433.368    4354.0835    4080.4028    91471.459   -23439.452 
  138500    295.52723    214.08399    74708.494    -23654.59    4216.0379    4123.7759    91203.859   -23662.018 
  138750    305.04959    -265.3486    74793.541   -23558.677    4351.8854    3915.7292    91518.434   -23565.673 
  139000    303.53826     226.7513    74865.686   -23614.156    4330.3245    4146.1267    91221.692   -23623.724 
  139250    303.19304   -86.509178    74963.463    -23520.43    4325.3995    3966.2388    91494.723   -23528.512 
  139500    300.04062   -165.80298    75063.354   -23382.488    4280.4265     3918.425    91680.946   -23390.136 
  139750    302.13743     181.5428    75144.172   -23424.153      4310.34    4005.2286    91548.582   -23431.896 
  140000    304.17792   -70.245097    75233.614   -23422.765    4339.4499    3945.8915    91613.099   -23428.691 
  140250    300.17011   -175.68711    75329.081   -23480.417    4282.2739    3919.3767    91581.588   -23485.801 
  140500     295.2359     -205.402     75410.83   -23393.452    4211.8817    3915.5575    91677.143   -23400.128 
  140750    298.82057   -42.489647    75467.487   -23266.452    4263.0211    3923.8466    91784.973   -23277.524 
  141000    300.27214    298.80298     75508.37   -23433.082    4283.7295    4099.2125     91448.45   -23438.162 
  141250    295.26735    223.00388     75536.88   -23381.858    4212.3304    4054.9494    91544.884   -23388.299 
  141500     290.5227   -161.04984    75551.912   -23382.246    4144.6424      3924.43    91674.322   -23386.559 
  141750    304.81365    379.03176    75530.629   -23360.528    4348.5194     4096.867    91526.476   -23368.316 
  142000    306.13095    161.73253     75488.78    -23411.41    4367.3121    4011.2713    91569.502   -23415.283 
  142250    305.62013   -117.26833    75440.143   -23489.958    4360.0248    3989.6319    91500.705   -23496.843 
  142500    295.61262   -161.99249    75388.133   -23330.178     4217.256    3893.2351    91753.955    -23336.63 
  142750    295.85835   -390.76803    75310.381   -23493.388    4220.7616    3882.7881    91607.813   -23498.041 
  143000    301.64925    58.941348    75198.877   -23408.938    4303.3755    3989.0855    91585.291   -23416.295 
  143250    298.19062   -268.61516     75079.51   -23431.647    4254.0342    3868.8144    91678.968   -23437.595 
  143500    300.61328    130.06919    74948.404   -23383.323    4288.5962    3987.3483    91612.175   -23391.249 
  143750    307.83198    -124.4677    74820.702   -23480.201    4391.5793    3916.6349    91592.772   -23487.218 
  144000    297.19362    38.383657    74683.629   -23444.139    4239.8108    3957.3213    91582.695   -23449.702 
  144250    297.56809    198.52474     74550.36   -23435.796     4245.153    4015.9715    91529.595   -23443.294 
  144500    302.57428    102.27782    74436.503   -23581.508    4316.5721     3979.941    91429.643   -23588.635 
  144750    304.34276    164.66779    74338.445   -23529.628    4341.8016     4019.672    91435.328   -23536.368 
  145000    302.32202    32.755713    74248.887   -23623.361    4312.9734    4008.9658    91349.528    -23629.03 
  145250    300.94041    92.219787    74159.198     -23514.7    4293.2631    3961.7173    91515.678   -23522.648 
  145500    293.63474   -34.110898    74097.844   -23576.465    4189.0393    3947.5489    91469.386    -23581.76 
  145750    299.99508    145.11117    74058.368   -23586.846    4279.7768    3995.5025    91400.243   -23592.915 
  146000     297.9096    222.88695    74052.266   -23565.299     4250.025    4037.1774    91385.948   -23573.082 
  146250    297.14311    37.442554    74070.787    -23586.76    4239.0902    3980.3853    91425.091    -23593.03 
  146500    299.78051    296.29455    74119.658   -23629.456    4276.7158     4093.722    91265.868   -23634.955 
  146750    295.47285    440.45295    74201.956   -23571.616     4215.262    4134.3524    91282.724   -23577.338 
  147000     298.8838    128.05899     74315.46   -23520.274    4263.9231    3987.9529    91487.202   -23526.716 
  147250    299.62097   -59.625897    74448.523   -23625.843    4274.4397    3981.6043    91376.957    -23632.22 
  147500    298.68276   -44.237106    74594.463   -23475.066    4261.0551    3954.2883    91551.497   -23480.862 
  147750    302.35258    65.000087    74717.979   -23461.765    4313.4093    3966.8484    91562.921    -23467.05 
  148000    296.21712     110.9133    74850.975    -23437.25    4225.8799    4004.2124    91548.237   -23440.731 
  148250    294.49501   -153.21602    74985.179   -23451.033     4201.312    3924.8542    91601.595   -23458.388 
  148500    299.20717    113.99375    75106.048   -23471.774    4268.5365    4016.0437    91496.856   -23477.785 
  148750    304.13478    184.34454      75221.2   -23402.276    4338.8346    4013.7443    91562.168    -23409.67 
  149000    297.98799   -396.20584    75328.495   -23549.268    4251.1435    3897.7579    91525.445   -23560.769 
  149250    306.49197   -273.77372      75394.6   -23421.197    4372.4625    3874.5218    91685.729   -23427.924 
  149500    304.60884   -62.345075     75441.57   -23548.734    4345.5975    4011.8061    91424.775   -23555.011 
  149750    295.62735   -375.25459    75475.535   -23342.043    4217.4662     3845.432    91800.115   -23347.105 
  150000     296.3694    107.00528     75487.53   -23428.651    4228.0523    4044.0276    91512.948   -23436.285 
  150250    298.73239    13.284347     75479.27   -23438.632    4261.7632    3986.8671    91558.549   -23445.578 
  150500    304.75412   -287.25817    75459.601   -23442.449      4347.67    3880.4927    91661.426   -23450.226 
  150750    297.75448    32.712083    75425.305   -23538.772    4247.8122    4069.9587    91381.016   -23545.992 
  151000    303.14147   -173.10358    75367.437   -23560.761    4324.6638    3970.3146    91456.461   -23566.842 
  151250    298.62186    24.851242    75287.665   -23426.526    4260.1863    3991.2604    91561.333   -23436.228 
  151500    296.96015    30.768453    75187.924    -23420.33      4236.48    3971.9453    91591.911   -23428.036 
  151750    297.79345   -225.13421     75076.83   -23429.018    4248.3681    3908.9086    91648.373   -23435.645 
  152000    298.41428    201.44462    74948.167   -23414.762     4257.225    4042.9042    91525.711   -23424.804 
  152250    303.32839   -251.54337    74839.472   -23534.782    4327.3303    3888.6045    91561.671   -23542.027 
  152500    300.25572   -323.44606     74745.08   -23537.536    4283.4953    3876.4233    91567.934   -23550.365 
  152750    298.99539    -303.7044    74656.002   -23567.025    4265.5152     3904.228    91519.642   -23571.136 
  153000    298.48465   -136.52671    74558.012   -23629.619    4258.2289    3983.0289    91374.963    -23638.64 
  153250    301.22099    167.27568    74467.696   -23474.031    4297.2659      3984.14    91531.158   -23479.293 
  153500    303.43298    142.57146    74395.396   -23456.716    4328.8225     3964.065    91558.833   -23465.366 
  153750    306.83348   -503.84996    74345.622   -23539.866    4377.3346    3791.9306    91659.457   -23549.183 
  154000    305.84522    319.60228    74318.085    -23542.64    4363.2359    4069.5816    91378.845   -23547.618 
  154250      303.579    160.04234    74330.337   -23563.963    4330.9057    4040.6393    91382.154   -23571.476 
  154500    298.80635   -163.49242    74348.562   -23538.189    4262.8182    3902.0241     91544.72   -23542.113 
  154750    298.43472    497.28644    74372.971   -23538.883    4257.5165    4144.7426    91296.094   -23545.052 
  155000    299.28772   -260.07691     74410.98    -23605.76    4269.6856    3915.3533    91463.587   -23612.319 
  155250    295.28288     20.71426    74465.278   -23556.842    4212.5519    3978.5999    91458.078   -23561.522 
  155500    295.47171    30.944068    74527.418   -23556.086    4215.2457    3990.6886    91440.787   -23562.125 
  155750    297.77469    115.49264    74586.435   -23506.919    4248.1005    4005.0332    91474.767   -23510.906 
  156000    300.14299   -112.26873    74651.494   -23552.951    4281.8869     3956.674    91482.455   -23557.007 
  156250    299.89744   -136.91862     74707.75   -23496.664    4278.3839    3909.1924    91587.175   -23500.491 
  156500    302.32876    -198.3459    74766.472   -23614.064    4313.0696    3954.6912    91416.953   -23619.385 
  156750    300.26994   -18.653619    74829.058   -23654.447     4283.698    4037.6429    91299.826   -23660.816 
  157000    303.57625   -231.71775    74893.071   -23543.199    4330.8665    3924.9738    91518.845   -23548.919 
  157250     301.2293    113.67122      74974.9   -23378.415    4297.3844    3990.0819    91614.309   -23384.409 
  157500    302.53231   -57.791857    75064.544   -23515.829    4315.9734      3994.68    91477.288   -23520.766 
  157750    293.05603    96.463059    75144.511   -23466.869    4180.7834    4041.7856    91473.406   -23471.782 
  158000    305.20999    185.58833    75200.265   -23607.427    4354.1736    4088.7394    91293.092   -23614.746 
  158250    299.67979   -209.80902    75239.888   -23559.034    4275.2788    3982.4244    91438.802   -23566.679 
  158500    297.04922    33.061806     75256.86   -23438.473    4237.7507    4012.9115    91529.027   -23444.528 
  158750     296.8555   -330.60366    75253.385    -23496.96    4234.9871    3913.4053    91578.448   -23502.689 
  159000    298.12166   -104.40556    75228.673   -23408.072    4253.0504    3964.1261    91612.007   -23414.911 
  159250     301.4185    178.16123    75185.678   -23387.367    4300.0836    4015.3055    91578.821   -23393.522 
  159500    302.81894    37.340186    75147.249    -23452.91    4320.0626     4014.383    91511.996   -23460.106 
  159750    304.27537    15.754751    75105.932   -23393.992    4340.8401    3954.9396    91633.497   -23399.797 
  160000     295.6117    18.082991    75083.192   -23460.222    4217.2429     3989.059    91528.701   -23469.072 
  160250     303.0625    332.37051    75062.877    -23522.07    4323.5371    4106.7179    91349.847   -23528.616 
  160500    299.74451    260.89999     75040.82   -23378.969    4276.2022    4022.3262    91576.789   -23389.706 
  160750    299.07823    6.7012184    75027.097   -23496.613     4266.697    3990.3858    91501.964   -23504.419 
  161000    298.21393     229.1222    75011.791   -23442.011    4254.3667    4070.4595    91470.969   -23451.942 
  161250    299.56137     170.7873    75001.133   -23381.416    4273.5896    3981.0144    91626.455   -23389.797 
  161500    300.91191    93.929315    75001.658   -23431.856    4292.8565    3978.3148    91580.489   -23440.342 
  161750    296.61573   -447.25146    74992.046   -23602.121    4231.5666    3922.5385    91465.168   -23610.413 
  162000    296.61393   -96.864235    74957.423   -23649.068    4231.5408    4001.2836    91340.378    -23656.42 
  162250     303.4277   -226.61711    74898.301   -23486.808    4328.7471    3905.3598    91590.669   -23497.753 
  162500    301.66731   -184.59118    74811.004   -23405.418    4303.6332    3915.0428     91657.59   -23411.984 
  162750    304.68286    174.76586    74726.055   -23489.651    4346.6535    4015.0852    91479.005   -23499.395 
  163000    304.73827    404.99019     74647.37   -23513.072     4347.444     4092.295      91386.2   -23518.547 
  163250    300.83014   -141.26911    74576.649   -23455.464      4291.69    3897.8266    91634.944   -23462.252 
  163500    298.43024    450.44539    74518.106   -23635.322    4257.4526    4189.0707     91159.85   -23640.225 
  163750     295.4886    1.1254014    74479.363   -23532.919    4215.4867    3980.7077    91467.349   -23541.169 
  164000    300.91598    65.543423    74446.695   -23456.619    4292.9146     3981.802    91549.141   -23461.205 
  164250    296.09115   -152.13391    74432.815   -23596.338    4224.0828    3932.4891    91451.835    -23601.72 
  164500    302.21809    47.331242    74434.211   -23612.849    4311.4908    4014.4537    91362.078   -23618.337 
  164750    302.58278    60.525066    74444.193   -23562.883    4316.6934    3951.5256    91464.081   -23568.089 
  165000    297.85929   -61.963891    74479.548   -23681.761    4249.3073    4031.9095    91278.576   -23687.769 
  165250    302.26883   -291.46884     74521.82    -23562.68    4312.2146    3884.3974    91546.789   -23569.986 
  165500    301.30119   -83.539443    74553.118   -23522.856    4298.4101    3937.6242    91524.168   -23530.297 
  165750    302.80661   -225.48407    74584.227   -23382.556    4319.8867    3831.1439    91766.301   -23389.413 
  166000     304.4335    237.44749     74584.55   -23526.592     4343.096    4073.8205    91383.958   -23533.789 
  166250    300.62251   -138.36826    74567.763   -23559.261    4288.7279    3950.9684     91468.57   -23571.092 
  166500    297.79417   -170.25226    74543.296   -23549.614    4248.3783     3938.246    91491.781   -23556.151 
  166750    298.15887    320.60876    74511.545   -23517.715    4253.5813    4077.4546    91391.198   -23526.251 
  167000     300.1351    151.49666    74487.008   -23536.871    4281.7744    4021.8533    91426.722     -23543.8 
  167250    300.59553   -201.09378    74473.096   -23431.766     4288.343    3882.1633    91670.614   -23441.022 
[...]
  209000    302.68959   -631.16108    75926.934   -23286.142    4318.2172    3738.6974    91959.584   -23296.776 
  209250    300.91342   -298.61407    76048.589   -23366.461    4292.8781    3914.9083    91695.767   -23374.075 
  209500    298.55254   -310.38442    76118.401   -23319.275    4259.1973    3870.5337     91797.11   -23327.105 
  209750    301.76369   -260.38416    76128.168   -23395.109    4305.0081    3955.7221     91633.46   -23401.479 
  210000    301.21596   -281.10072    76108.218   -23533.386    4297.1941    3982.1812    91473.555   -23541.465 
  210250    296.33561    64.931622    76070.507   -23370.229    4227.5703     4014.643    91599.556   -23378.042 
  210500    295.99464   -446.11009    76010.459   -23456.255     4222.706    3891.9095    91636.795   -23462.266 
  210750    301.61439    65.930696    75918.809   -23338.075    4302.8782    3985.2966    91660.198   -23344.414 
  211000    292.13082   -253.19476    75829.262   -23366.627    4167.5841    3920.1746    91690.447    -23375.27 
  211250    297.92087   -245.01018    75717.212   -23441.194    4250.1858     3945.042    91595.473   -23449.455 
  211500    297.49059    17.597279    75584.305    -23361.39    4244.0474    3983.6792    91635.631    -23367.67 
  211750    299.78845   -225.86408    75447.906   -23509.859    4276.8291    3965.5876    91515.469   -23514.649 
  212000    296.14538   -264.10517    75289.026   -23445.591    4224.8565    3918.0052    91616.721   -23454.547 
  212250    301.81532   -61.520107    75118.263   -23524.915    4305.7448    3997.0897    91465.067   -23530.162 
  212500    294.26143   -199.26735    74961.779   -23414.694    4197.9798    3896.5615    91671.722   -23424.227 
  212750    297.56509    -235.7367    74817.888   -23446.822    4245.1102    3855.8367    91676.172   -23456.823 
  213000    296.71583    164.00063    74692.613   -23396.284    4232.9945    3976.0812    91611.248   -23405.635 
  213250    307.66452    216.63206    74587.013   -23524.004    4389.1903    4022.0774    91434.582   -23531.295 
  213500     300.4092   -137.93074    74493.444   -23502.595    4285.6848    3911.1734    91570.366   -23512.905 
  213750      303.611    450.97625    74419.612    -23555.51    4331.3622    4136.6554    91294.724    -23564.38 
  214000    301.28845    488.04219    74371.481   -23524.145    4298.2283    4069.6852    91385.893   -23535.126 
  214250    299.68716    297.41775    74355.539   -23407.517     4275.384    4011.6396    91559.419   -23414.831 
  214500    302.09455    228.59399    74366.584   -23506.086    4309.7282    4012.2849    91465.844   -23517.001 
  214750    302.81273    -178.1705    74392.872   -23582.595     4319.974    3936.6936    91464.764    -23594.72 
  215000    304.84377    8.1235424     74432.06   -23424.182     4348.949     3933.715    91617.922   -23435.235 
  215250    298.16441    402.26227    74501.121   -23493.881    4253.6602    4089.1559    91401.104   -23500.938 
  215500    306.38885   -469.19063    74584.211   -23577.556    4370.9915    3855.9725    91541.344   -23589.075 
  215750    300.44694    52.435177    74650.205    -23522.14    4286.2231    3994.4284    91469.686   -23531.215 
  216000    299.55589   -54.615719    74712.574   -23560.695    4273.5114    4012.3089    91411.197   -23566.687 
  216250    296.41949   -24.140807    74764.572   -23481.334     4228.767    3975.2722    91526.055   -23494.429 
  216500    300.24894    195.39199    74814.805   -23446.136    4283.3985    4013.2643    91524.603    -23453.85 
  216750    297.28204   -229.37428    74872.368   -23462.292    4241.0722    3895.8507    91621.466    -23472.64 
  217000    297.68332      130.753    74919.367   -23451.453    4246.7969     4028.363    91504.025   -23460.094 
  217250    298.56154   -286.98069    74969.224   -23434.573    4259.3257    3870.9111    91684.973   -23443.806 
  217500    300.08725    19.419701    74996.059   -23269.254    4281.0918    3909.5149    91800.499   -23276.064 
  217750    299.92709    75.430783    75041.492   -23587.113    4278.8069    4067.0374    91329.471   -23591.176 
  218000    299.70029   -223.83752    75077.536   -23496.312    4275.5714    3927.9532    91566.799   -23504.915 
  218250    304.37087    211.51035    75086.484   -23519.021    4342.2026    4072.8197     91385.07   -23526.995 
  218500    297.92503   -195.91108    75085.021   -23440.579    4250.2453    3950.8762    91584.256   -23449.209 
  218750    303.61857    307.40129    75072.223   -23486.339    4331.4702    4092.9092    91401.184   -23496.681 
  219000    303.72054   -191.47611    75062.188   -23449.606    4332.9249    3924.0043    91606.983   -23458.782 
  219250    307.29168   -663.50909    75054.196   -23464.489    4383.8713    3742.0812    91777.359    -23470.82 
  219500    298.96234    50.332446    75016.646   -23364.282    4265.0437    3953.8954    91672.711   -23370.206 
  219750    303.57749    25.769025    74965.603   -23436.174     4330.884    3931.3092     91614.06   -23441.407 
  220000     298.7683    162.52862    74893.676   -23383.258    4262.2754    4024.6508    91573.519   -23388.814 
  220250     298.4525   -42.330009    74830.105    -23522.92    4257.7701    3986.6602    91474.775   -23529.593 
  220500    301.65464   -169.13716    74781.362   -23542.663    4303.4524    3940.7891    91503.458   -23550.703 
  220750     289.3347   -481.70611    74732.213   -23418.449    4127.6943     3805.531    91755.888   -23429.095 
  221000    296.86531    217.60969    74666.948    -23595.08    4235.1271    4068.3691    91327.642    -23601.02 
  221250    302.11732   -106.85797    74615.679   -23596.033    4310.0531    3949.3084    91432.116   -23607.827 
  221500    298.00076    699.11471    74566.105   -23565.108    4251.3256     4256.517    91163.279   -23574.159 
  221750    302.59309    162.44293    74559.797   -23489.661    4316.8405    4019.7863    91470.583   -23498.886 
  222000    300.82142    197.52396    74580.541   -23435.685    4291.5655    3997.8015    91548.748   -23441.881 
  222250    298.70821    294.99639    74624.878   -23477.492    4261.4182    4055.9971    91454.621   -23484.026 
  222500    294.17367    384.65689    74672.907   -23468.735    4196.7277      4110.48    91397.555   -23477.398 
  222750    297.40766   -162.68767    74730.803    -23504.65    4242.8643     3929.515    91553.507   -23511.309 
  223000    295.02572    116.05193    74795.956   -23480.743    4208.8832    4044.3821    91464.367    -23489.72 
  223250    294.59265     479.7676    74868.677   -23566.609     4202.705    4190.4889    91227.545    -23574.49 
  223500    301.47342    -36.66564    74952.948   -23513.946    4300.8672    3961.0044    91509.678   -23524.713 
  223750    300.15017     250.1229    75040.286   -23460.902    4281.9895    4067.3776    91456.064   -23468.587 
  224000    299.23262    108.21291     75145.09    -23396.18    4268.8995    4005.9387    91582.919   -23402.117 
  224250    303.49047   -123.60186    75245.905   -23469.431    4329.6426    3963.2667    91548.127   -23479.942 
  224500    298.78064    -42.69718    75321.025   -23445.154    4262.4515    3981.5685     91551.86   -23453.599 
  224750    294.02256   -267.13173    75377.345   -23575.501     4194.572    3979.1205    91434.401   -23582.382 
  225000    297.80434   -299.85176    75416.845   -23390.304    4248.5234    3858.3008    91742.821   -23397.775 
  225250    295.22999    314.77994    75433.546    -23294.34    4211.7974    4056.1662    91633.712   -23304.574 
  225500    299.78002   -409.36174    75445.169    -23428.97    4276.7088    3846.8787    91706.111   -23436.316 
  225750    295.84128    116.47859    75416.067   -23413.199    4220.5181    4008.0347     91564.05   -23423.443 
  226000    299.04569   -174.37208    75376.718    -23459.15    4266.2328    3926.8341    91597.979   -23467.799 
  226250    300.54096    44.864728    75332.705   -23492.267    4287.5645    4021.5689    91471.397     -23500.5 
  226500    295.82556   -154.10844     75283.44   -23424.777    4220.2939    3935.8284     91623.72   -23429.914 
  226750    296.97572    18.428759    75219.669   -23382.774    4236.7023     3967.292    91635.457   -23390.731 
  227000    295.13848   -187.38146    75144.925    -23478.52    4210.4919    3954.7006    91550.876   -23484.027 
  227250    295.61768   -13.643237    75052.053   -23532.727    4217.3281    4033.2726    91416.326   -23536.824 
  227500    295.13167   -30.144135    74947.737    -23617.17    4210.3948    4041.4393    91335.479   -23623.744 
  227750    302.32783    88.909651    74806.601   -23449.868    4313.0563    3972.0158    91559.788    -23459.32 
  228000     303.3321   -85.596266     74642.33    -23433.36    4327.3834    3919.7601    91630.408   -23439.186 
  228250    295.69467    132.72817    74484.183   -23548.469    4218.4265    4035.9418     91402.52   -23555.661 
  228500    298.39241    438.36783    74348.286   -23470.373     4256.913    4103.6465    91411.733   -23478.235 
  228750    298.29452    173.76542    74242.047   -23460.335    4255.5164    3963.3093    91562.102   -23464.854 
  229000    296.59244    388.48128    74166.748   -23417.962    4231.2342    4039.6356    91525.851   -23425.867 
  229250    297.29496   -256.02048    74130.393   -23496.164    4241.2565    3846.3837     91645.88   -23502.975 
  229500     297.9854   -180.84807    74115.046    -23484.92    4251.1065    3875.1672    91632.502   -23493.547 
  229750    300.13808    470.06489    74134.331   -23639.359     4281.817    4146.7656    91204.374   -23644.754 
  230000    303.39504    133.26438    74201.662   -23579.437    4328.2813    4002.2304    91407.133   -23585.062 
  230250     302.7614    39.837304    74302.261   -23486.045    4319.2416    3949.0453    91555.118   -23492.118 
  230500    298.28346     16.96396    74420.672   -23461.222    4255.3587    3945.7996    91570.901   -23468.016 
  230750    300.50711     122.8299    74565.971   -23551.842    4287.0816     4036.216    91398.334   -23560.168 
  231000    293.74047   -392.89956    74733.351   -23477.256    4190.5476    3867.5238    91643.889   -23485.627 
  231250    296.73025    309.79217    74896.904    -23541.65    4233.2003    4120.7124    91310.575    -23548.53 
  231500    303.05674   -90.696718    75060.976   -23461.728    4323.4551    3940.3195    91582.944   -23466.292 
  231750    298.27857   -233.02909    75225.288   -23482.128    4255.2888    3945.1969    91562.569   -23491.916 
  232000    301.63083   -259.07837    75374.607   -23552.621    4303.1128     3951.632     91481.68   -23561.364 
  232250    305.51688   -68.402324    75493.649   -23539.799    4358.5518     3970.336    91478.702   -23546.745 
  232500    300.17735   -418.31688    75597.385   -23440.161    4282.3772     3868.459    91674.306   -23446.295 
  232750    296.93781   -178.54631    75680.887   -23368.898    4236.1614      3935.82    91680.306    -23377.44 
  233000    302.06169    232.78192    75743.123   -23381.225    4309.2595    4077.5864    91528.478   -23386.624 
  233250    300.36226   -340.97459    75783.139   -23549.454    4285.0151    3967.4434    91466.689   -23556.867 
  233500    296.76589   -234.96439    75799.406   -23404.964    4233.7088    3941.0567    91632.815   -23414.647 
  233750    295.17204    -303.1766    75797.896    -23479.93    4210.9707    3968.9662    91538.386   -23488.168 
  234000    304.44009   -507.75772    75765.782   -23468.081    4343.1902    3850.7988    91658.398   -23478.882 
  234250    307.33358     173.8283    75686.733   -23501.625    4384.4691    4090.5308    91389.731   -23511.658 
  234500    301.65075    -295.9965    75594.404   -23490.299    4303.3969    3907.6889    91585.113   -23498.003 
  234750    299.20644    57.110207    75499.188   -23515.219    4268.5261    4069.5137    91397.346   -23523.786 
  235000    305.34549   -74.661196    75403.844   -23489.456    4356.1066    3991.6898    91495.997     -23498.5 
  235250    296.32247   -441.85004    75303.467   -23356.223    4227.3829     3806.519    91819.407   -23363.341 
  235500    303.83291   -202.49496    75189.712   -23494.084    4334.5279    3901.2437    91592.363    -23501.53 
  235750    300.03745    -166.5268    75075.193   -23517.421    4280.3813    3960.1876    91507.136   -23524.148 
  236000     305.6891    111.81282    74962.206   -23552.303    4361.0086    4025.5138    91403.788   -23562.591 
  236250     301.2011    77.422089    74874.479    -23425.42    4296.9821    3972.3327     91581.55   -23433.283 
  236500    306.01162   -63.770702    74792.603    -23466.31    4365.6098    3951.9877    91569.404   -23472.873 
  236750    302.05128    69.945646    74705.263   -23554.749    4309.1109    4024.6672    91404.496   -23562.976 
  237000    299.75297   -32.241977    74608.449   -23502.247    4276.3229    3933.0183    91547.717   -23509.604 
  237250    299.19164    358.14644    74537.156   -23550.966    4268.3149    4092.6491    91334.191   -23557.672 
  237500    296.81382    348.41273    74501.231     -23497.5    4234.3925    4078.0923    91408.013   -23506.076 
  237750    296.42694    197.75107    74499.912   -23476.971    4228.8733    4027.9268    91484.875   -23485.506 
  238000    300.29261    246.91691    74526.022   -23431.146    4284.0214    4010.5932     91549.64   -23433.981 
  238250    302.50714    245.10988    74568.378    -23457.62    4315.6143    4031.9898    91496.519   -23464.394 
  238500    303.36511    350.29231    74611.425   -23407.436    4327.8543    4064.4647    91509.102   -23412.883 
  238750    295.87856    171.47892    74664.412   -23556.891    4221.0499    4057.9818    91374.228   -23562.406 
  239000    297.69513   -156.73727    74709.225   -23438.362    4246.9654    3919.2535    91625.323   -23444.248 
  239250    299.77351     198.0325    74749.716   -23536.482    4276.6159    4053.0418    91394.468   -23544.051 
  239500    299.63155    201.51697    74789.592   -23477.287    4274.5908     4069.355    91434.767   -23484.455 
  239750    304.13349    83.087542    74835.111   -23554.771    4338.8161    4034.1971     91393.09   -23562.136 
  240000    300.93875   -128.80819    74883.779   -23497.848    4293.2395    3981.5997     91510.37   -23505.086 
  240250    300.41441    -305.0369    74920.062   -23520.043    4285.7591    3907.7239    91553.134   -23528.949 
  240500     296.5148  -0.50729946    74930.713   -23383.538    4230.1266    3922.2397    91674.149   -23390.296 
  240750    305.42494    167.60842    74932.356   -23408.372    4357.2401    4009.5552    91570.803   -23415.593 
  241000    300.41532   -566.29292    74954.133   -23520.484     4285.772    3810.0036    91650.975   -23528.588 
  241250    292.97269   -19.577659    74973.353    -23499.48    4179.5943    3968.0198     91522.36   -23507.063 
  241500    294.06728   -155.74919    74985.019   -23511.604      4195.21    3950.9832    91524.849     -23517.9 
  241750    295.44237   -238.00464    74967.151   -23588.626    4214.8272    3983.0864     91416.28   -23596.018 
  242000    299.79752    100.50556    74944.463   -23517.104    4276.9585    4015.8123    91454.994   -23523.572 
  242250    295.81958   -118.04913    74927.099   -23395.119    4220.2085    3913.8032    91673.583   -23400.839 
  242500    295.81445    96.822385    74902.468   -23512.208    4220.1353    4014.7516    91459.528   -23519.113 
  242750    297.05921    257.99953    74857.538   -23432.811    4237.8933    4068.3007    91478.247   -23441.804 
  243000     302.7829     389.1455    74813.818   -23446.811    4319.5484    4100.7359    91432.922   -23456.692 
  243250    302.55787     277.3244    74790.431   -23565.294    4316.3381    4097.3407    91324.014   -23573.366 
  243500    299.58532   -175.82259     74781.13   -23539.576    4273.9312    3937.8802    91502.165   -23546.246 
  243750    300.74454   -518.63875    74746.654   -23470.779    4290.4688    3805.2822    91707.453   -23478.875 
  244000    304.00261   -72.857634    74685.466   -23473.237     4336.949    3958.2166    91557.273   -23481.977 
  244250    299.75963   -122.32457    74617.175   -23544.821    4276.4179    3968.1914    91474.356   -23552.699 
  244500    300.00676    501.03089    74559.942   -23446.206    4279.9436    4123.1788    91409.313     -23455.1 
  244750    303.54723    18.993472    74515.954    -23467.37    4330.4523    3999.2693    91509.103   -23475.036 
  245000    298.30973   -92.437605    74465.352   -23702.499    4255.7334    3993.1139    91290.743   -23708.442 
  245250    294.85096    93.118911    74415.872   -23559.169      4206.39    3991.2787     91437.72   -23566.275 
  245500    294.09111    149.48807    74392.249   -23572.017    4195.5499    4040.1674    91372.138   -23580.639 
  245750    300.54526    587.55397    74382.356   -23520.579    4287.6258    4157.6067    91307.597    -23529.42 
  246000    297.04597    349.73001    74398.827   -23482.977    4237.7044    4056.2811    91446.063   -23490.737 
  246250    291.65624   -377.08821    74423.403    -23489.75    4160.8137     3846.554    91641.869   -23496.741 
  246500    296.09047    -98.97829    74443.007   -23598.848    4224.0731    3966.5691    91409.227   -23605.908 
  246750    301.15521    175.98388     74471.28    -23426.76    4296.3275    4007.7873    91550.489    -23432.28 
  247000    300.96497   -184.00365    74507.172   -23612.725    4293.6135      3933.96    91437.089    -23619.82 
  247250     297.6966   -3.1709607    74565.081   -23540.003    4246.9864    3999.5521    91440.968   -23551.405 
  247500    296.69574    288.81653    74623.967   -23460.862     4232.708    4053.3178    91460.637   -23474.268 
  247750     302.1261   -128.25618    74668.853   -23459.802    4310.1783    3914.9826    91606.621   -23466.711 
  248000    301.76342   -103.45081    74720.652   -23384.094    4305.0043    3878.3979    91720.894    -23395.36 
  248250    300.21777    107.53499    74767.926   -23340.052    4282.9538    3935.0214    91710.088   -23347.321 
  248500    302.76625   -385.65984    74822.207   -23616.978    4319.3108    3908.6592    91455.489    -23624.56 
  248750    301.32894    -203.2551    74867.781    -23387.63    4298.8059     3880.708    91713.077   -23396.554 
  249000    303.37851    28.698324    74896.373   -23592.906    4328.0455    4024.2696     91361.04   -23601.324 
  249250    298.59334   -173.98847    74925.528     -23448.8    4259.7795    3882.7334    91656.659   -23452.611 
  249500    297.79404   -140.53288    74958.729   -23505.785    4248.3765    3941.1887    91537.537   -23510.657 
  249750    301.24256   -171.81669    74989.815   -23419.447    4297.5737    3915.2289    91651.046       -23425 
  250000    301.31903   -126.94269    75005.684   -23646.524    4298.6646    4019.9559    91313.949   -23651.955 
Loop time of 18012.2 on 1 procs (1 MPI x 1 OpenMP) for 250000 steps with 7168 atoms

Pair  time (%) = 12831.4 (71.2374)
Bond  time (%) = 0.886199 (0.00491999)
Kspce time (%) = 1440.77 (7.99888)
Neigh time (%) = 2062.18 (11.4488)
Comm  time (%) = 56.8081 (0.315387)
Outpt time (%) = 0.746236 (0.00414295)
Other time (%) = 1619.39 (8.99051)

FFT time (% of Kspce) = 290.291 (20.1483)
FFT Gflps 3d (1d only) = 2.37485 4.79963

Nlocal:    7168 ave 7168 max 7168 min
Histogram: 1 0 0 0 0 0 0 0 0 0
Nghost:    21593 ave 21593 max 21593 min
Histogram: 1 0 0 0 0 0 0 0 0 0
Neighs:    2.35856e+06 ave 2.35856e+06 max 2.35856e+06 min
Histogram: 1 0 0 0 0 0 0 0 0 0

Total # of neighbors = 2358558
Ave neighs/atom = 329.04
Ave special neighs/atom = 2.01228
Neighbor list builds = 25094
Dangerous builds = 0
write_restart   confout-1.data
PPPM initialization ...
  G vector (1/distance) = 0.270558
  grid = 36 18 18
  stencil order = 5
  estimated absolute RMS force accuracy = 0.0274894
  estimated relative force accuracy = 8.27836e-05
  using double precision FFTs
  3d grid and FFT values/proc = 25625 11664
