LAMMPS (24 Apr 2013)
WARNING: OMP_NUM_THREADS environment is not set. (../comm.cpp:100)
  using 1 OpenMP thread(s) per MPI task
# ----------------- Init Section -----------------
units           real
atom_style      full
boundary	p p p
kspace_style	pppm 1.0e-4

# ----------------- Atom Definition Section -----------------
read_restart	confout-0.data
  orthogonal box = (4.40364 2.10174 2.10174) to (83.5964 39.8983 39.8983)
  1 by 1 by 1 MPI processor grid
  10825 atoms
  7224 bonds
  3600 angles
  2 = max # of 1-2 neighbors
  2 = max # of 1-3 neighbors
  4 = max # of 1-4 neighbors
  6 = max # of special neighbors

# ----------------- Settings Section -----------------------

group 		spc		type	1 2
10800 atoms in group spc
group		end_atom	id 	10801
1 atoms in group end_atom

# ----------------- Run Section -----------------
# Write initial structure out
dump            icrd all custom 5 system-1.lammpstrj id mol type x y z ix iy iz
dump_modify     icrd sort id
run             1
WARNING: No fixes defined, atoms won't move (../verlet.cpp:54)
PPPM initialization ...
  G vector (1/distance) = 0.264943
  grid = 36 20 20
  stencil order = 5
  estimated absolute RMS force accuracy = 0.0367581
  estimated relative force accuracy = 0.000110696
  using double precision FFTs
  3d grid and FFT values/proc = 29889 14400
Memory usage per processor = 36.0144 Mbytes
Step Temp E_pair E_mol TotEng Press 
   65250    201.89139   -35543.247    4.9315468   -29024.433    24542.416 
   65251    201.89139   -35543.247    4.9315468   -29024.433    24542.416 
Loop time of 0.121951 on 1 procs (1 MPI x 1 OpenMP) for 1 steps with 10825 atoms

Pair  time (%) = 0.112908 (92.5847)
Bond  time (%) = 0.000771046 (0.632259)
Kspce time (%) = 0.00792003 (6.49444)
Neigh time (%) = 0 (0)
Comm  time (%) = 0.0002141 (0.175562)
Outpt time (%) = 7.39098e-05 (0.0606062)
Other time (%) = 6.38962e-05 (0.052395)

FFT time (% of Kspce) = 0.00120898 (15.2649)
FFT Gflps 3d (1d only) = 2.28092 4.58421

Nlocal:    10825 ave 10825 max 10825 min
Histogram: 1 0 0 0 0 0 0 0 0 0
Nghost:    26442 ave 26442 max 26442 min
Histogram: 1 0 0 0 0 0 0 0 0 0
Neighs:    3.56182e+06 ave 3.56182e+06 max 3.56182e+06 min
Histogram: 1 0 0 0 0 0 0 0 0 0

Total # of neighbors = 3561820
Ave neighs/atom = 329.036
Ave special neighs/atom = 2.00813
Neighbor list builds = 0
Dangerous builds = 0

# Reset the timestep
undump          icrd

# Timestep and Neighbour searching
timestep	2.0
neighbor        2.0 bin
neigh_modify	delay 4 every 1 check yes

# Fixes
fix 		pull end_atom setforce 0.01 0.0 0.0
fix 		shake spc shake 0.0001 10 0 b 1 a 1
  0 = # of size 2 clusters
  0 = # of size 3 clusters
  0 = # of size 4 clusters
  3600 = # of frozen angles
fix   		npt all npt temp 300.0 300.0 100.0 iso 1.0 1.0 1000.0

# Initial velocity
#velocity	all create 300 432567 dist uniform

# Write out thermodynamic information
thermo_style    custom step temp press vol pe ke evdwl ecoul epair
thermo	        250

# Write out trajectory
dump            cxtc all xtc 250 traj-1.xtc

# Write out velocity
#dump 		1 all custom 1 vel_npt.txt vx vy vz

# Checkpoint files
restart         5000 state_cpt-*.data

# Final run command
run             100000
PPPM initialization ...
  G vector (1/distance) = 0.264943
  grid = 36 20 20
  stencil order = 5
  estimated absolute RMS force accuracy = 0.0367581
  estimated relative force accuracy = 0.000110696
  using double precision FFTs
  3d grid and FFT values/proc = 29889 14400
Memory usage per processor = 36.0852 Mbytes
Step Temp Press Volume PotEng KinEng E_vdwl E_coul E_pair 
   65251    302.50171    312.16458    113132.94   -35538.315    6513.8819     6245.535     138315.2   -35543.247 
   65500    300.22317    243.93526    113020.03   -35458.872    6464.8171    6109.2166    138512.93   -35465.053 
   65750    299.55732   -125.66206    113550.85   -35471.814    6450.4791    6053.8976    138564.61   -35476.077 
   66000    299.39964    120.50679    112661.74   -35549.254    6447.0837     6129.309    138419.81   -35554.024 
   66250     295.0561    151.44673    112686.14   -35473.066    6353.5528    6095.7402    138523.17   -35478.707 
   66500    301.93247   -229.25516    112345.96   -35550.262    6501.6242    5924.8033    138617.14   -35554.505 
   66750    304.26677    30.371336    112645.21   -35521.545    6551.8896     6082.677    138488.18   -35527.833 
   67000    299.43229    159.67958    112555.36   -35462.404    6447.7868    6074.7876    138558.25   -35470.414 
   67250     296.6337   -204.97006    113376.39    -35471.54    6387.5238    5962.4848    138658.02   -35479.713 
   67500    301.14048   -100.13497    112960.15   -35549.504      6484.57    6031.1073    138520.12   -35555.895 
   67750    295.92159    418.59129    112077.78   -35710.092    6372.1896    6289.8369    138102.08   -35716.402 
   68000    293.99128    336.59398    112663.55   -35476.621    6330.6236    6201.3673    138409.89   -35486.551 
   68250    303.14221     76.39161    113569.69   -35493.305    6527.6739    6137.2712    138453.86    -35502.78 
   68500     302.3435    124.09733    112644.79   -35703.876    6510.4751    6157.9016    138236.92   -35712.766 
   68750    306.75207   -146.67978    113470.32   -35638.438    6605.4064    6057.9025    138390.24   -35649.246 
   69000    305.10143   -236.76889    113874.91   -35543.435    6569.8625    6032.4415    138518.64   -35553.181 
   69250    299.53357    466.60293    112884.55   -35683.011    6449.9678    6348.2602    138065.35   -35690.032 
   69500    295.13954   -385.70587    113942.11   -35594.423    6355.3495    5984.8286    138519.78   -35604.305 
   69750    301.75697   -116.83414    112368.18   -35733.624    6497.8451    6081.1945    138282.45   -35743.476 
   70000    291.34401    157.89699    111716.43   -35703.159    6273.6188     6143.074    138252.04   -35715.466 
   70250     299.5724    -188.3426    112731.95   -35830.149     6450.804    6105.5957    138170.89   -35837.855 
   70500    306.09047    163.46357    112451.89   -35892.369    6591.1599    6248.7618    137959.59   -35900.838 
   70750    303.55946   -12.773802    113318.71   -35833.866    6536.6587    6178.7115    138085.39   -35841.192 
   71000    306.71969    467.63374    113025.39   -35709.782    6604.7091    6318.8803    138064.32   -35715.882 
   71250     298.5982   -14.168845    113163.63   -35526.864     6429.826    6092.6485    138472.73   -35538.706 
   71500    301.48661    348.51412    112534.22   -35631.745    6492.0233    6245.8256    138211.95   -35641.912 
   71750     301.1364   -240.77212    113825.21   -35628.631    6484.4821    6036.7511    138412.19   -35639.438 
   72000    300.69138   -242.61685    114265.28   -35682.393    6474.8993    6092.3081    138311.93   -35697.106 
   72250     296.0791    100.88554    113512.51   -35686.526    6375.5814    6245.6884     138157.7   -35698.772 
   72500    298.53705    345.19004     113795.7   -35633.959    6428.5093     6330.409    138125.38   -35646.923 
   72750    301.15863   -174.17023    113375.01   -35612.138    6484.9608    6004.7109    138481.76   -35621.386 
   73000    298.75869    136.15042    112651.38   -35826.063     6433.282    6218.6805    138044.58   -35840.534 
   73250     302.5086    56.575525    113249.47   -35769.297    6514.0301    6225.0215    138088.57   -35780.706 
   73500    305.35096   -7.7756148     113042.4   -35877.239    6575.2357    6214.7584    138002.33   -35887.598 
   73750    299.46863   -317.14006    113804.88   -35739.117    6448.5694    6015.5575    138345.61   -35749.897 
   74000    303.16317   -146.71918    113283.62   -35843.875    6528.1252    6132.4028    138116.59   -35856.837 
   74250    293.50256    92.466399    112292.18   -35904.704    6320.0997    6233.2692    137956.15   -35917.275 
   74500    294.36401    161.05474    113173.91   -35782.102    6338.6498    6261.2014    138046.43   -35795.116 
   74750      303.817   -89.163931    113738.34   -35684.698    6542.2044    6100.6845    138299.95   -35694.317 
   75000    304.94757   -100.12083    113481.93   -35716.895    6566.5495    6104.3359    138260.68   -35730.169 
   75250    299.97904   -145.21775    113436.88   -35633.768    6459.5602    6052.6529    138401.77   -35647.658 
   75500    300.65379    0.4767898    113581.95   -35743.977    6474.0899    6138.2803       138219   -35748.697 
   75750    301.96429   -15.265386    113154.13   -35840.729    6502.3094    6195.7166    138057.12   -35849.189 
   76000    297.29713   -180.91048    112728.12   -35847.923    6401.8095    6033.4307    138215.73   -35857.584 
   76250    296.90137    25.205268    112787.45   -35897.707    6393.2876    6246.0889    137953.47   -35910.825 
   76500    295.92262   -53.891925    113453.03   -35881.097    6372.2117    6209.0581    138008.24   -35892.407 
   76750    301.21507   -77.163937    113578.81   -35814.493    6486.1761    6211.0703     138057.9    -35828.55 
   77000    301.34679   -231.06999    113017.96   -35759.241    6489.0124    6040.1749    138303.78   -35767.391 
   77250    302.18936    339.50644     112783.9   -36010.458    6507.1559    6406.7874    137679.76   -36020.676 
   77500    301.51115   -222.24296    112892.33   -35979.838    6492.5518    6137.0632    137975.62   -35988.583 
   77750    302.18353    59.036648    111708.14   -36111.924    6507.0303    6279.8955    137712.69   -36121.526 
   78000    303.87601   -211.04113    113016.43   -36070.223     6543.475    6156.6887    137875.92   -36082.026 
   78250    300.70062    -58.52367    112436.66   -35950.023    6475.0983    6155.0586    137992.57   -35959.366 
   78500    304.02429    93.609577    113257.79   -35835.088    6546.6681    6251.7721    138006.74   -35843.474 
   78750     295.7101   -22.213807    112704.89     -35948.7    6367.6356    6196.3579    137944.38   -35956.102 
   79000    300.53514    68.699121    112697.52   -35980.155    6471.5349    6256.5833    137867.49   -35990.217 
   79250    296.35633   -223.67317    113347.43   -35963.513    6381.5509    6166.2606     137964.1   -35971.197 
   79500    295.87389    119.67154       113124     -35996.4    6371.1625    6337.2663    137763.61   -36006.203 
   79750     296.0268    79.355431    112670.36   -36133.274    6374.4551    6360.0708    137609.67   -36144.185 
   80000    298.42763   -6.3214263     112888.7    -36105.86    6426.1531     6262.922     137723.7    -36118.56 
   80250    295.82917   -132.42045    112351.92   -36180.978    6370.1995    6235.3983    137685.54   -36187.404 
   80500     301.1601    187.22354    112404.09   -36143.747    6484.9925    6379.4289    137573.53   -36154.875 
   80750    298.29612   -371.57812    112921.85   -36083.565    6423.3213     6134.262    137879.14   -36092.183 
   81000    301.34701    -107.3279    112062.99   -36165.944    6489.0172    6213.4931    137716.09   -36179.924 
   81250    298.48405    208.15606    112370.48   -36221.128     6427.368     6391.277    137485.92   -36231.474 
   81500    299.23873    79.656239    113118.88    -36095.18    6443.6188    6340.0278    137668.01   -36104.908 
   81750    298.27469   -139.90326    113081.82   -36075.312    6422.8599     6198.452    137827.01    -36085.41 
   82000    301.68639    56.805078    112145.81   -36286.971    6496.3252     6318.882    137498.87   -36293.726 
   82250    304.67103    176.92561    112642.12   -36281.461    6560.5947    6417.3704    137397.56    -36289.46 
   82500    302.95442    220.24269     112938.3   -36355.745    6523.6302    6492.9805    137249.72   -36364.375 
   82750     294.0659    193.58233    112538.86   -36370.271    6332.2305    6442.2841    137284.89    -36374.58 
   83000     301.6893    254.37084    112609.45   -36226.318    6496.3878    6396.8793    137477.47   -36237.123 
   83250    297.44571    145.15681    112255.03   -36178.517    6405.0091    6355.3274    137564.86   -36186.033 
   83500    300.58905    240.01657    112823.06    -36211.97    6472.6957    6407.8644    137484.15   -36217.013 
   83750    301.31263    270.95835    112465.54   -36420.424    6488.2769    6531.1362     137148.6   -36428.448 
   84000    301.85301    334.59286    112037.39   -36337.862    6499.9131    6467.0643    137299.37   -36343.026 
   84250    298.66025    4.9546652     112553.9   -36447.478    6431.1623    6383.5919     137271.1    -36456.45 
   84500      296.781   -294.12965    112968.26   -36317.543    6390.6956     6221.679    137568.52   -36325.238 
   84750    299.04265   -146.95035    112714.17    -36323.61    6439.3966    6237.8614    137529.18   -36335.686 
   85000    302.31223    32.103243    112931.09   -36404.328    6509.8016    6388.9157    137302.52   -36418.695 
   85250    303.62551    314.08097    112332.78   -36544.042    6538.0811    6559.6488    136993.28   -36552.991 
   85500    297.35149   -179.79871    112985.19   -36357.348    6402.9803    6308.3054     137437.4   -36365.686 
   85750    294.36471   -52.583884    112872.92    -36421.08    6338.6646         6406    137273.77   -36431.935 
   86000    303.32502    187.89618    112387.24   -36479.354    6531.6104    6483.9159    137138.22   -36487.731 
   86250    300.86773    102.61981    112537.75   -36429.381    6478.6967     6429.793    137234.54    -36442.13 
   86500    300.67174   -134.50722    112431.88   -36590.159    6474.4765    6410.5857    137099.37   -36599.748 
   86750    299.34431    287.58019    111680.24   -36720.251    6445.8922    6587.9551    136794.73   -36725.483 
   87000    295.57618   -42.045854    112593.93   -36501.285    6364.7517    6418.1008    137189.02   -36510.089 
   87250    302.03598    142.18146    112722.03   -36522.895    6503.8531    6489.9257    137090.13   -36531.574 
   87500    299.96666   -353.92982    113169.99   -36467.963    6459.2936    6265.3578    137372.05   -36477.715 
   87750    298.37091    110.64976    112536.05   -36670.491    6424.9316    6540.3644    136891.64   -36681.577 
   88000    298.82851     61.14848    112874.22   -36502.838    6434.7855    6464.4617    137130.44   -36511.869 
   88250    303.75823    13.334434    112448.89   -36575.781     6540.939    6383.0998     137149.1    -36584.03 
   88500    305.20827   -78.195241    113195.87   -36568.069    6572.1631    6403.5319    137134.13   -36574.966 
   88750    296.69738   -292.29169    113900.35   -36522.284    6388.8949    6362.4998    137218.72   -36528.817 
   89000    301.96219    494.57247    112510.46   -36690.673    6502.2642    6668.4545     136751.9   -36697.357 
   89250    302.65425   -218.74095    113471.38   -36732.632    6517.1666    6446.5456    136931.19   -36740.409 
   89500     301.4273   -50.806905    113026.37   -36581.676    6490.7461    6451.3559    137070.94   -36590.355 
   89750    300.39378     158.7673    112007.74   -36805.219     6468.491    6585.7988    136707.06   -36814.917 
   90000     304.1113   -60.709355    112247.16     -36784.7    6548.5416    6391.9881    136941.53   -36791.226 
   90250    299.95294   -81.630319    111839.11   -36792.717    6458.9981    6463.4413    136849.23   -36800.886 
   90500     301.9762   -155.85942    112382.34   -36922.344    6502.5657    6440.9634     136749.4   -36931.125 
   90750    305.81709    4.7426281    112530.87   -36774.205    6585.2732     6522.737    136804.44   -36784.382 
   91000     298.3908   -258.88482    112475.17   -36918.931    6425.3601     6394.243    136802.22   -36923.997 
   91250    299.07114    99.772493     112258.1   -36976.474      6440.01    6594.4733    136543.38   -36982.893 
   91500    296.43179   -173.75127    112638.43   -36942.708    6383.1759     6508.177    136660.17   -36952.465 
   91750    300.12339    327.51067    112426.01   -37034.149    6462.6685    6754.0996    136320.64   -37044.677 
   92000    303.15215   -21.685613    112680.28   -37002.408    6527.8879    6569.5698    136536.84   -37009.582 
   92250    307.32733    150.24117    113214.65   -36920.572    6617.7937    6665.4498    136527.56   -36927.761 
   92500    306.53943    224.65405    113016.37   -36852.005    6600.8276     6653.153    136593.74   -36861.248 
   92750    301.06392   -113.16792    112902.64    -36892.46    6482.9214    6492.2044    136724.39   -36897.547 
   93000    301.19213     64.94247    111892.44   -36997.366    6485.6821    6578.1742     136532.4   -37005.313 
   93250    296.81561    59.046455    112858.42    -37045.39    6391.4408    6639.5258    136431.68   -37051.332 
   93500    301.46209    94.950812     112108.9   -37083.876    6491.4953    6611.2272     136413.3   -37092.808 
   93750    298.94208   -342.97982    112688.95   -37064.309     6437.231    6464.0211    136584.64    -37067.64 
   94000    300.66462   -96.415563    111811.01   -37120.511     6474.323    6557.8227    136431.15    -37127.44 
   94250    306.46871    189.01003    111584.58    -37193.28    6599.3046    6683.6653    136234.62   -37201.814 
   94500    301.05384    -300.4852    112544.27    -36914.36    6482.7043    6402.0632    136797.22   -36920.371 
   94750    307.80987    577.71563    111345.24   -37143.492    6628.1844    6841.6271    136131.94   -37149.172 
   95000    297.14507   -319.35813    112793.58   -37231.479    6398.5353    6546.4775    136335.31   -37238.837 
   95250    297.78677   -59.336727    112010.11   -37170.585    6412.3533    6603.6973    136334.95   -37179.389 
   95500    300.54819   -401.54166    112441.76   -37102.452    6471.8158    6405.5173    136608.32   -37108.573 
   95750    299.80384   -37.674243    111869.37   -37225.733    6455.7876     6605.138    136280.25   -37233.212 
   96000    303.40762   -179.09216    111849.34   -37122.867     6533.389    6499.8019    136489.31   -37130.167 
   96250    304.12237   -126.49436    112087.93   -37177.939    6548.7801    6555.5125    136374.08   -37184.083 
   96500    300.55696    -257.2226    111821.05    -37280.43    6472.0048    6512.3633    136328.74   -37285.998 
   96750    299.31967    123.78562    112208.27   -37210.107    6445.3617    6674.6415    136231.94   -37216.381 
   97000    300.20962    211.82803    112363.43   -37296.823    6464.5253    6815.8406    135994.24   -37304.801 
   97250    294.56774   0.96510375    112609.37   -37198.406    6343.0366    6720.0116    136187.29   -37208.859 
   97500    306.43102   -31.230703    112310.97   -37283.325    6598.4932    6675.0086    136150.64   -37295.727 
   97750    306.69408    502.91612    111881.46   -37184.443    6604.1577    6840.7372    136084.03   -37194.143 
   98000    296.89351   -165.54255    112570.85   -37364.413    6393.1184    6642.9315    136105.01   -37375.304 
   98250    301.53296    308.08853    112443.81   -37302.802    6493.0212    6850.7406    135957.59   -37315.942 
   98500    297.14265   -527.93886    113093.58   -37419.031    6398.4832    6521.9112    136170.98   -37426.559 
   98750    297.96136    387.36151     112012.1   -37391.001    6416.1127    6891.6651    135837.45    -37400.14 
   99000    301.33862   -15.670939    112782.37   -37323.971    6488.8365    6718.7771    136069.13   -37333.992 
   99250    306.66213    208.21701    112436.84   -37367.131    6603.4697    6792.8617    135951.63   -37378.444 
   99500     301.9412    9.6645912    112429.56   -37546.424    6501.8121    6795.8159    135758.82   -37559.915 
   99750    296.63794   -92.801631    113026.27   -37395.847    6387.6151    6743.3644       135974   -37405.861 
  100000    297.74672    -105.8621    112477.07    -37501.09    6411.4909    6736.6846    135864.62   -37509.237 
  100250    299.87043   -98.411813    112992.29   -37487.605    6457.2214    6770.0385    135851.44   -37499.019 
  100500     301.8756    414.24474     111717.2   -37508.453    6500.3995    6914.3998    135688.19   -37520.628 
  100750    297.78705     -71.4693    112377.51   -37495.405    6412.3592    6732.6238    135880.51    -37506.49 
  101000    298.89918   -280.71073    113088.94    -37496.14    6436.3072    6650.0187    135957.63   -37509.554 
  101250    305.78238   -63.146065    112981.65   -37583.432    6584.5257    6790.2229    135738.38    -37593.08 
  101500    299.47405    334.01972    111930.09   -37486.487    6448.6862    6910.5748     135717.5    -37496.38 
  101750    296.20435   -142.43011    112725.99   -37546.359    6378.2783    6755.5087    135806.01   -37557.113 
  102000    300.13359    124.58483     112412.6   -37609.875    6462.8882    6872.3098    135629.52   -37620.335 
  102250     301.7921   -307.84624    112855.29   -37544.241    6498.6016    6627.7997    135933.33   -37556.649 
  102500    300.73181    44.493647    112287.81   -37695.273    6475.7698    6893.3737    135513.92   -37711.789 
  102750    300.35405   -64.257774    112017.87   -37603.011    6467.6354    6746.3007    135762.04   -37615.322 
  103000    298.61333    31.948371    112158.67   -37745.379    6430.1518    6875.9827    135498.81   -37753.747 
  103250    299.83642    221.46543    111924.18   -37806.272    6456.4892    6971.9035    135337.67   -37818.754 
  103500    303.30282    123.41094    112080.64   -37751.453    6531.1325    6940.3407    135419.92   -37762.376 
  103750    307.88515   -250.85685    112503.22   -37712.256    6629.8055    6742.7746    135655.94   -37724.071 
  104000    297.00207    37.773216    112104.75   -37746.553     6395.456    6923.3979    135443.18   -37759.085 
  104250    301.06575   -34.148055    112502.26   -37824.585    6482.9608    6918.8284    135368.58   -37837.884 
  104500    301.55796   -191.08911    112548.57   -37867.434    6493.5597    6799.7244    135456.86   -37875.018 
  104750    298.65582    53.184912    112116.32   -37634.726    6431.0669    6845.6623    135637.59   -37647.626 
  105000    299.20416   -196.89806    111959.35   -37826.357    6442.8745    6761.7403     135530.2   -37840.133 
  105250    297.10247   -91.877996    112329.94   -37721.705     6397.618    6814.3859    135574.74   -37735.648 
  105500    294.77988   -155.79572     111566.7   -37909.239    6347.6048    6827.2342    135369.43   -37923.809 
  105750    302.27407   -53.740126    112803.65   -37792.895      6508.98    6860.4157    135469.63   -37800.652 
  106000    299.22272    158.80566    112253.16   -37768.587    6443.2742    6979.7925    135360.92   -37776.336 
  106250    301.12195   -38.957571     112699.9   -37851.512     6484.171     6896.318    135364.97   -37861.664 
  106500     299.8172   -230.13931    113381.81   -37862.969    6456.0753    6897.5068    135342.42   -37877.083 
  106750    298.38633     128.4059    112156.53   -37946.509    6425.2638    6971.2321    135195.66   -37957.078 
  107000    300.76198   -346.45488    112784.07   -37976.588    6476.4196     6808.908    135326.94   -37990.937 
  107250    301.85258    167.78119    111990.33   -38038.595    6499.9039     7017.093    135061.36   -38048.467 
  107500    300.00411   -143.29621    111802.65   -38019.627       6460.1    6834.7405    135261.33   -38026.387 
  107750    300.02818    25.787092    111078.97   -38150.843    6460.6183    6945.1981    135021.62    -38160.26 
  108000    300.93552   -243.79365    112838.13   -37989.457    6480.1565    6833.8272    135288.54    -37998.77 
  108250    300.67222    34.319088    112243.89   -38088.391    6474.4868    6985.9401    135046.89   -38096.557 
  108500    300.07778    60.161587    111936.88   -38099.769    6461.6865     7006.808    135011.29    -38113.81 
  108750    300.16161   -150.10101    112184.99   -37943.568    6463.4915    6855.5158    135306.68   -37958.003 
  109000    300.19109     64.05832    111793.02   -38155.825    6464.1263    7043.8065    134912.66   -38167.171 
  109250    304.00485    467.40513    111864.02     -38107.4    6546.2495    7210.7148    134790.18   -38122.421 
  109500    305.20064   -274.60821    112049.64   -38258.501    6571.9989     6893.138    134967.38   -38265.187 
  109750    303.31655   -7.3310568    112213.45   -38232.307    6531.4279    7028.4372     134853.6   -38242.966 
  110000     293.9392   -167.13987    112540.73   -38301.766     6329.502    7001.9553    134804.67   -38314.994 
  110250    297.42409    126.64118    112096.51   -38321.319    6404.5436    7149.3453     134645.7   -38330.604 
  110500    300.87515    37.881522    112032.96   -38247.515    6478.8565     7087.063    134783.24   -38261.562 
  110750    300.20967     37.87169    112459.45   -38194.458    6464.5263     7041.253    134874.49   -38206.503 
  111000    304.44978    360.98429    111598.33   -38433.099    6555.8303     7275.593    134405.85   -38442.994 
  111250    298.39654    62.284142     112345.4   -38407.285    6425.4837    7174.5442    134537.47   -38417.891 
  111500    296.08972   -222.47923    112632.94   -38336.073    6375.8101    7021.7734    134758.22   -38345.614 
  111750    296.27034    -166.5323    111852.57   -38279.906    6379.6994    6953.4045    134886.09    -38291.51 
  112000     294.9814   -102.03867    112146.11   -38377.813    6351.9442    7082.5914    134657.31   -38388.017 
  112250    298.54855   -83.812928    112032.99   -38339.307    6428.7569    7066.2674    134704.91     -38348.6 
  112500    301.45535    232.37038    111815.07    -38439.76    6491.3501     7199.385    134488.54   -38446.879 
  112750     305.9305   -319.15478    112375.57   -38225.728    6587.7153    6900.8286    134991.76   -38236.779 
  113000     296.8981    208.15395    111355.74    -38463.84    6393.2171    7185.0158    134477.88   -38472.852 
  113250    299.01472    179.00356     111742.8   -38384.244    6438.7951    7142.0825       134600   -38391.322 
  113500    302.06743   -129.00356    112070.69   -38298.375    6504.5302    7005.3848    134813.39   -38308.838 
  113750    299.81212    113.27533    111707.73   -38313.339    6455.9659    7097.9383    134707.11   -38320.583 
  114000    302.01472   -166.03304    111617.82   -38445.766    6503.3951    6979.8838    134688.48   -38455.435 
  114250     301.1272    253.40811    111785.75   -38358.207    6484.2839    7182.7352    134585.81   -38365.006 
  114500     297.0625   -167.80131    112302.33    -38468.85    6396.7572    7062.4743    134597.29   -38475.868 
  114750    298.60552      -112.66    112441.72   -38417.259    6429.9837    7061.0404    134651.44   -38424.279 
  115000    299.82114    264.74122    112191.06   -38466.057    6456.1601    7261.9822    134390.46   -38474.049 
  115250    303.49714    6.3350517    112304.14   -38457.276    6535.3167    7111.7547    134558.58   -38463.902 
  115500    299.12059   -21.429573    112525.28   -38559.168    6441.0748    7166.3019    134399.02   -38568.971 
  115750     299.8083    37.656836     112296.1     -38511.2    6455.8836    7132.8309    134484.97   -38517.656 
  116000    301.37807    357.76331    111861.27   -38650.247     6489.686    7328.5125    134152.74   -38655.486 
  116250      300.431   -90.125976    111853.52   -38676.101    6469.2923    7156.0309    134294.44   -38682.554 
  116500    299.91988   -285.88705    111867.42   -38648.986    6458.2863    7027.8739    134446.21   -38657.027 
  116750    297.61391    345.69782    111646.11   -38606.722    6408.6309    7332.4546    134185.47   -38617.721 
  117000    303.76213   -273.66612    112650.87   -38647.072    6541.0229    7066.1212     134414.4   -38656.227 
  117250     300.9387   -180.57147    112352.27   -38664.123     6480.225    7119.9096    134338.73   -38676.842 
  117500    304.99148    158.56123    111699.58   -38762.176     6567.495     7271.092    134091.72   -38770.621 
  117750    299.83704    98.108733    112065.43   -38668.422    6456.5024    7261.0291    134188.05   -38677.401 
  118000    301.08918    67.234453       112013   -38759.738    6483.4653    7268.8529    134085.25   -38772.746 
  118250    299.05447   -89.917265    112070.03   -38805.136    6439.6511    7253.3452    134065.33   -38817.374 
  118500    296.01004    84.847339    112215.97   -38767.739    6374.0943    7280.1335     134078.2   -38775.305 
  118750    305.14181    195.14314    112586.57   -38743.746    6570.7321    7327.7617    134047.92   -38755.093 
  119000    304.32959    172.75332    112839.26   -38743.503    6553.2421     7371.957    133997.21   -38756.028 
  119250    301.63725    40.681398    112566.07   -38816.815     6495.267    7283.0181    134021.39   -38823.537 
  119500    301.61411   -227.82006    112790.35   -38808.666    6494.7688    7200.8921    134114.85   -38817.703 
  119750    301.41144     484.5857    112046.32   -38945.696    6490.4047    7510.6869    133665.88   -38953.208 
  120000     302.3636   -8.0856709     112719.5    -38857.98    6510.9077    7308.2258    133954.27   -38868.996 
  120250    303.71192    117.64701    113151.74   -38818.913    6539.9417    7330.9265    133975.45   -38825.442 
  120500    303.21627    122.92357    112378.79   -39027.401    6529.2686    7431.0827    133669.69   -39037.999 
  120750    299.44739   -126.43131    112470.55   -38962.732     6448.112    7282.8806    133878.42   -38972.035 
  121000    296.59755    224.22427     112419.3   -38975.657    6386.7454    7476.0318    133676.21   -38984.973 
  121250    299.05265   -199.86558    112983.11    -39005.96    6439.6119    7318.0058    133805.71   -39013.873 
  121500    298.33289    253.36831    112517.93   -39044.571    6424.1131    7537.6116    133538.43    -39054.29 
  121750    295.86492   -162.49043    113245.55   -38984.582    6370.9693    7318.9075       133817   -38989.411 
  122000    299.63081   -236.38439     112847.9   -38936.655    6452.0616    7236.4636    133959.09   -38943.478 
  122250    303.71935   -126.82697    112936.79   -38960.208    6540.1017     7273.691    133885.84   -38968.767 
  122500    298.27543    130.28415    113141.46    -39119.95    6422.8756    7530.8095    133479.49   -39129.255 
  122750    300.13834    213.08648    112274.27   -39123.295    6462.9904    7528.4583    133476.46   -39130.665 
  123000    299.24728    141.39356    112421.99   -39065.406    6443.8029    7419.0068    133647.27   -39071.852 
  123250    298.39887    118.39812    112654.65    -39020.03    6425.5338    7403.9939    133705.52   -39028.286 
  123500    301.16035    285.65625    112575.17   -39087.631    6484.9978    7516.9067    133522.86   -39097.947 
  123750    300.38675   -257.46339    113522.75   -39088.709    6468.3396    7315.5387    133720.08   -39098.759 
  124000    302.72173    83.977618    112951.23    -39117.31    6518.6195    7456.6503    133548.25   -39127.185 
  124250    299.53636    -199.5147    113468.56   -39084.809    6450.0279    7324.6057    133720.54   -39094.035 
  124500    302.55361    182.85596    113356.91   -39183.666    6514.9993    7529.3208    133414.91   -39189.478 
  124750    297.57397   -10.927138    113176.66   -39167.984    6407.7708    7480.3793    133481.45    -39175.25 
  125000    301.94488   -41.456112    113143.86   -39098.269    6501.8914    7396.4494    133636.45   -39103.512 
  125250    298.12326    43.149774    113336.77   -39263.045    6419.5991    7536.8817    133325.64   -39269.304 
  125500    298.86673    -295.3424    113463.44   -39210.731    6435.6083    7362.7157    133556.69   -39217.802 
  125750    295.65605    128.84204    113229.44     -39319.1    6366.4717    7613.8897    133195.86    -39327.41 
  126000    299.60771   -170.88794    113953.51   -39197.113    6451.5641    7465.6671    133460.04   -39209.716 
  126250    302.77709    177.55827    113029.52   -39183.684    6519.8117    7547.2313    133397.92   -39192.292 
  126500    300.95361   -26.717852    113686.47   -39311.096    6480.5459      7528.48    133288.99    -39320.16 
  126750    302.50557   -17.527743    113444.14    -39388.89    6513.9649    7546.2905    133205.42   -39392.778 
  127000     300.9531   -162.91516    113284.86   -39303.032     6480.535    7440.2727    133388.03   -39308.821 
  127250    297.21943   -170.73592     113399.6   -39298.595    6400.1365    7459.9094    133376.02   -39305.694 
  127500     296.6901   -157.77266    113379.58   -39298.246    6388.7383    7462.0713     133371.6   -39306.769 
  127750    295.94968    5.9559204    113210.16   -39327.867    6372.7945    7534.0365     133271.9   -39333.073 
  128000    299.69295   -47.000101    113023.94   -39318.505    6453.3998    7486.2415    133322.43   -39324.016 
  128250    303.76968    303.84188    113099.78    -39413.89    6541.1854    7668.2769    133053.99   -39419.679 
  128500    301.50914    133.91915    113018.84    -39429.66    6492.5085    7603.4379    133099.31   -39436.993 
  128750    301.61079     188.0424    112702.99   -39342.343    6494.6972    7570.9271    133211.42   -39351.185 
  129000    300.93917   -329.15304    112827.51    -39474.88     6480.235    7410.7189    133236.34   -39486.823 
  129250    298.47989   -74.540338    113155.85   -39449.747    6427.2785    7543.7901       133134    -39461.25 
  129500    300.81338    187.93671     112188.8   -39451.277    6477.5265    7597.0536    133094.75   -39456.433 
  129750    295.70166   -316.02393    112736.48   -39555.988    6367.4538    7442.1403    133130.75   -39565.657 
  130000    301.50164    240.11861    112089.94   -39516.989     6492.347    7633.5714    132981.36   -39526.832 
  130250    298.85757   -330.11311    113168.01   -39440.481    6435.4112    7433.8233    133249.35   -39455.286 
  130500     300.2616   -180.69848    113067.79   -39504.167    6465.6447    7485.7621    133135.93    -39515.41 
  130750     300.8652    36.062519    112432.07   -39615.481    6478.6423       7619.4    132899.21   -39625.238 
  131000    295.72478   -34.492806    112627.21   -39636.501    6367.9516    7612.4435    132878.07   -39648.722 
  131250    296.21278   -253.22522    112619.36   -39597.876    6378.4599    7470.6925    133066.13   -39605.961 
  131500    299.65128   -98.076181    112981.46   -39548.671    6452.5025    7545.7407    133036.94   -39558.817 
  131750    297.42069    48.198067    112551.81   -39648.511    6404.4703    7613.1344    132870.89   -39656.617 
  132000    300.22084    4.2370146    112739.92   -39720.316     6464.767    7623.6245    132787.36   -39730.571 
  132250    300.93617   -429.74198    113219.52    -39604.78    6480.1705    7423.2281    133099.76   -39614.304 
  132500    297.83306    -217.0288    113088.46   -39663.555      6413.35    7560.4246    132907.79   -39673.033 
  132750    297.86895   -233.65928     113043.7   -39695.672    6414.1228    7555.5357    132881.61   -39703.667 
  133000    300.07081    11.855103    112820.83   -39584.481    6461.5363    7603.6485    132943.77   -39591.505 
  133250      300.416   -27.666707    113121.89   -39641.561    6468.9695    7620.7197    132870.53   -39649.943 
  133500    296.81667    -15.00333    113012.94   -39781.227    6391.4638    7696.7554    132653.86   -39790.494 
  133750     301.6337   -4.2982396       112861   -39768.077    6495.1906    7643.5627    132723.29   -39777.065 
  134000    300.84544   -170.38949    112789.31   -39755.891    6478.2166    7598.3101    132776.14   -39766.927 
  134250     297.8568    311.00894    112555.85   -39810.333    6413.8612    7841.6304    132486.63   -39819.578 
  134500     299.5093   -266.43864    113074.47   -39735.966    6449.4451    7533.3227    132865.43   -39743.431 
  134750     300.7895    16.733798    112680.17   -39795.428    6477.0121    7666.9884    132671.79   -39804.856 
  135000    300.90184   -233.41786    113152.64   -39829.089    6479.4313     7606.177    132700.18   -39838.347 
  135250    299.96041     36.96306    112800.16   -39859.085     6459.159    7723.6084    132555.15   -39866.675 
  135500    300.31488   -254.95982     113001.4    -39780.67    6466.7919    7568.2197    132786.83   -39786.038 
  135750    298.29912   -52.766944    112781.94   -39824.527    6423.3859    7699.3841    132605.38   -39834.479 
  136000    293.49295   -1.9887432    112947.78   -39833.786    6319.8929    7752.8347    132542.63   -39844.858 
  136250    301.29948   -78.324534    112926.61   -39906.467    6487.9936    7679.5272    132547.65   -39912.957 
  136500    298.40722   -100.56273    113171.84    -39888.63    6425.7137    7716.5947    132525.26   -39899.246 
  136750    299.27026   -307.94265    113484.27    -39953.26    6444.2978    7638.7704    132539.36   -39964.875 
  137000    300.94104   -240.90996    113834.12   -39928.456    6480.2753    7672.5197    132540.17   -39936.749 
  137250     297.8694   -8.3667849    113598.58   -39990.876    6414.1325    7795.3905    132352.06   -39999.311 
  137500    301.49285    94.864813    113589.15    -39952.53    6492.1577    7833.5079    132356.75   -39960.892 
  137750    299.41522    199.14041    113255.09   -40028.338    6447.4192    7914.2336    132189.08   -40036.203 
  138000    300.23424   -232.18552    113652.44   -40050.664    6465.0555    7747.7411    132333.71   -40063.059 
  138250    304.04085    263.59676    113103.86   -40028.191    6547.0246    7909.1445    132196.22   -40037.005 
  138500    299.24791    16.923631    113453.01   -39964.026    6443.8165     7807.229    132359.12   -39971.373 
  138750    298.48521   -266.68952     113839.8   -40121.983     6427.393    7767.8302    132248.39    -40129.14 
  139000    297.71169    276.16803    113298.91   -40040.883    6410.7366    7948.4778    132144.08   -40050.555 
  139250     297.5914   -21.622803    114086.97   -40041.027    6408.1463    7865.7119    132224.62   -40053.588 
  139500    299.20486    305.19111    113209.19   -40053.091    6442.8895    7968.7703    132114.29   -40063.075 
  139750    299.94957   -112.56835    113760.66   -40044.442    6458.9256    7768.7619    132319.52   -40056.369 
  140000    300.91896    41.229031    113759.41   -40068.229    6479.7999    7870.3437    132195.62   -40078.593 
  140250    302.72044     -110.845    113942.59   -40116.897    6518.5917    7809.3772    132210.55   -40127.443 
  140500    299.64502   -59.896292    113800.48   -40183.424    6452.3676    7847.4322     132110.3   -40194.748 
  140750    308.23554   -18.768998    113588.67   -40093.934    6637.3505    7808.7503    132237.54   -40102.383 
  141000    305.17998    94.495725    113793.35   -40115.581     6571.554    7891.0672    132136.77   -40125.476 
  141250    300.06247   -170.21834    114386.54   -40059.744    6461.3566    7779.0821    132293.26   -40072.569 
  141500    299.66459    302.73189    113606.46   -40251.892     6452.789    8041.8131    131841.67   -40260.773 
  141750    300.02455   -160.48417    114201.03    -40141.72    6460.5403    7820.8109    132173.82   -40150.161 
  142000     303.3713    142.73404    113087.49   -40350.855     6532.607    7965.9593    131821.78   -40359.063 
  142250    302.26537   -116.51547    113807.53   -40250.078    6508.7925    7867.4261     132020.1   -40260.207 
  142500    302.89583   -9.5326764    113423.34   -40183.536    6522.3685    7840.2105    132110.64   -40192.663 
  142750    304.01296    242.55345    113350.24   -40210.739    6546.4242    7960.8209    131967.58   -40218.472 
  143000    299.43534    233.88579    113250.52   -40362.815    6447.8525    8063.2961    131708.48   -40370.676 
  143250     303.4268    135.05446     113507.4   -40267.751    6533.8021    7987.0851    131875.02   -40281.269 
  143500    301.29235   -65.859194    113226.03   -40375.845    6487.8401    7895.9952       131864   -40384.751 
  143750    303.65602   -356.29967    114083.01    -40341.78    6538.7379    7788.0893    132010.34   -40350.547 
  144000    297.06296     1.103844    113053.44   -40437.947    6396.7673    7948.2741    131757.11   -40445.996 
  144250     297.5835    68.293648     113445.5    -40375.44    6407.9761    7981.1223    131779.37   -40385.575 
  144500    297.83202   -65.052319     113459.4   -40385.406    6413.3275    7878.7523    131871.51   -40394.129 
  144750    300.87649     106.9029    113231.42   -40342.866    6478.8853    7970.1634    131823.13    -40349.95 
  145000    302.30869    226.35668    113609.86   -40406.227    6509.7254    8060.1538    131673.45   -40412.323 
  145250    298.99261    -270.7424    113788.32   -40341.598    6438.3189    7830.2582    131965.74   -40352.603 
  145500    303.45827   -19.849885    114043.62   -40406.269    6534.4798    7973.2418     131759.3   -40416.191 
  145750    302.14908   -37.716192    113500.52   -40516.376    6506.2886    7975.8131    131657.12   -40521.967 
  146000    301.63075   -63.963783    113635.26   -40390.252    6495.1272    7912.1888    131836.53   -40396.767 
  146250    303.81437    304.76837    113680.83   -40334.352    6542.1477    8057.0568    131744.02    -40341.89 
  146500    304.58331    -14.34305    113769.65   -40393.077    6558.7056     7952.528    131790.45   -40401.815 
  146750    304.71928    67.939102    113641.21   -40446.072    6561.6336    8009.8135    131676.79   -40457.089 
  147000    300.18034   -53.416064    113507.63   -40482.928    6463.8948    7977.2769    131678.53    -40490.71 
  147250    301.44635   -150.74454    114123.81   -40382.076    6491.1564    7905.3499     131852.7   -40391.154 
  147500    299.29039    433.97119    113242.66   -40491.287    6444.7313    8192.9894    131458.99   -40497.116 
  147750    296.26189   -95.683882    114148.13   -40396.303    6379.5175    7933.2127    131808.63   -40401.859 
  148000    300.56838   -161.61014    113852.17   -40501.003    6472.2506    7920.4147    131719.77   -40506.625 
  148250    297.70694   -351.60909    114583.58   -40439.317    6410.6342    7882.2052    131819.77   -40445.714 
  148500    299.19805   -94.002726     113432.5   -40530.761    6442.7429    7957.8303    131650.19   -40537.327 
  148750    300.63432    120.69926    113621.05     -40575.5    6473.6706    8098.4748    131468.14   -40584.883 
  149000    300.42993    217.51444    114025.35   -40533.671    6469.2694    8145.5924     131462.6   -40541.101 
  149250    302.54519   -69.947978    113432.21   -40566.539     6514.818    7987.2184    131586.67   -40576.057 
  149500    304.63799    207.14428    113487.48   -40602.497     6559.883    8126.7177    131414.12   -40607.875 
  149750    305.27298     174.9998    114075.52   -40564.707    6573.5566    8152.6845    131425.21   -40571.396 
  150000    296.87044   -156.03251    113700.72   -40571.359    6392.6215    7978.3448    131587.76   -40580.983 
  150250    297.63378   -7.3365289    113659.65   -40605.416    6409.0589    8045.2994    131491.78   -40616.143 
  150500     298.4799   -123.32595    113801.26   -40615.712    6427.2786    8009.0944    131514.62   -40624.857 
  150750    300.62342   -54.793998    113866.47   -40602.077    6473.4359    8044.9785    131491.69   -40612.271 
  151000    300.43486   -76.885933    113571.35   -40641.754    6469.3756    8052.4846    131443.33   -40651.706 
  151250    301.35267    140.65416    113641.37   -40593.192     6489.139    8116.7342    131430.88   -40600.472 
  151500    295.68302   -42.898411    113571.56   -40745.973    6367.0525    8071.9341    131323.04    -40755.84 
  151750    299.49443    249.29916    113766.47    -40609.67    6449.1249      8168.02    131364.99    -40618.19 
  152000    303.38937    229.37255    113676.09   -40684.825    6532.9962    8184.0106    131271.88   -40693.504 
  152250    299.05484    359.33468    113374.08   -40672.448     6439.659    8236.3874    131232.76   -40679.993 
  152500    300.65052   -78.055545    114351.83   -40623.124    6474.0195    8043.2068    131473.15   -40631.772 
  152750    296.06154   -142.56941    114095.52   -40722.403    6375.2032    8047.6661    131381.24    -40726.53 
  153000    301.65795    267.35788    113706.35   -40702.787    6495.7129    8217.8882    131229.92   -40707.896 
  153250    297.48831   -226.29087    114284.59   -40604.743    6405.9264    7977.5084    131558.47   -40612.733 
  153500    302.06259   -73.496857    113874.59   -40651.979    6504.4261    8033.7569    131459.01   -40658.358 
  153750     301.4569    11.838952    113991.16   -40669.139    6491.3836    8109.2509    131370.36   -40676.344 
  154000    304.08237   -10.333108    114213.92   -40700.865    6547.9188    8127.9052    131316.48   -40707.392 
  154250      296.965     97.56591    114089.63   -40757.566    6394.6579    8173.6043    131213.84   -40761.584 
  154500    298.07883    219.97206     114009.4   -40692.651    6418.6423    8219.1474    131231.97   -40700.874 
  154750    301.01606   -9.4580698    114369.99   -40713.926    6481.8908    8140.0246    131289.84   -40720.477 
  155000    297.20126     203.7713    113824.17   -40693.886    6399.7452     8209.139    131239.13   -40704.348 
  155250    302.37644     271.9098    113753.57   -40743.014    6511.1844    8258.5088    131143.28   -40750.746 
  155500    305.17773   -38.235711    114426.88   -40701.001    6571.5054    8092.9282    131356.66   -40707.503 
  155750    295.58697   -119.51396    114068.07   -40783.958    6364.9841    8132.2388    131229.64   -40790.267 
  156000    300.17926   -13.667601     113865.6   -40754.449    6463.8717    8128.8352    131264.47   -40760.979 
  156250    303.54088    51.527163    114137.78   -40729.734    6536.2585    8134.1075     131280.3   -40736.627 
  156500    304.13861    50.517864    113860.96   -40673.734    6549.1297    8095.1127    131378.26   -40682.149 
  156750    299.63345   -163.55463     114198.2   -40770.749    6452.1185    8041.6777    131333.29   -40775.111 
  157000    301.30988    23.604477    113872.48   -40804.434    6488.2176    8189.3006    131142.21   -40817.071 
  157250    297.44509   -113.01465    113905.53   -40806.982    6404.9957    8112.9676    131222.08   -40819.546 
  157500    300.54828   -39.960337    114268.41   -40744.462    6471.8179    8129.1894    131265.18   -40754.462 
  157750    297.12586     154.1612     113885.7    -40846.25    6398.1215    8255.5234    131039.91   -40854.718 
  158000    300.10394   -35.227478    114119.62   -40815.301    6462.2498    8172.6583    131157.25   -40826.862 
  158250    303.94728    46.651962    114159.46   -40821.915    6545.0098    8155.2428    131166.07   -40832.334 
  158500    300.20201     48.98039    113827.61   -40718.686    6464.3615    8126.9722    131291.35   -40728.876 
  158750    299.21831    -55.62029    114552.78   -40741.483     6443.179    8133.4784    131263.99   -40751.037 
  159000    300.67729   -6.7394264    114473.74   -40784.889    6474.5959    8181.4696       131170   -40795.795 
  159250     299.6744    342.79408    113635.36   -40808.853    6453.0003    8325.6257    131001.85   -40822.491 
  159500    296.12076    44.598516    114830.09   -40750.589    6376.4785    8197.3508    131186.22   -40764.587 
  159750    303.41946   -5.6569113    114650.12   -40763.305     6533.644    8144.7088    131229.22   -40774.366 
  160000    302.15719    88.633993    114421.07   -40812.738    6506.4632    8237.0524    131092.59    -40823.41 
  160250    300.84605   -164.86029    114728.42   -40829.276    6478.2299    8099.4015    131215.46   -40836.276 
  160500    298.63229    163.81236    114449.38   -40826.228      6430.56    8294.9021    131013.87    -40838.97 
  160750    298.71728   -397.97133    114731.33   -40852.341    6432.3903    8040.0238    131247.91   -40865.539 
  161000     299.8565    78.763979    114160.48   -40878.937    6456.9215     8256.621    131016.04   -40887.352 
  161250    294.17835   -262.65818    115135.35   -40755.079    6334.6518    8142.9358    131238.39   -40769.409 
  161500    298.73962    523.47444    113454.22   -40940.683    6432.8712    8480.2547    130723.29    -40948.77 
  161750     297.1163    45.895553    114694.23   -40871.182    6397.9158    8301.6159    130963.16   -40881.179 
  162000    297.60043   -9.1705824    114371.22   -40895.766    6408.3407    8255.5814    130989.72   -40904.702 
  162250    297.55361    84.082341    113958.17   -40902.605    6407.3325    8272.1104    130972.16     -40910.1 
  162500    300.29579    201.27736    114192.43    -40894.27     6466.381    8320.6414    130930.73   -40902.181 
  162750    298.37104   -275.29796    114635.13   -40877.134    6424.9346    8127.0169    131136.76   -40886.735 
  163000    299.87899   -223.13146    114552.18   -40975.175    6457.4058    8164.1825    131003.77   -40987.105 
  163250    297.00207    290.97498    113973.12   -40904.019    6395.4559    8390.4894    130845.63   -40916.606 
  163500    299.13733   -113.75494    114600.73   -40985.859    6441.4355    8266.6759    130890.19   -40994.839 
  163750    296.23731   -57.634575    114418.43   -40976.805    6378.9881    8254.0305    130912.61   -40989.424 
  164000    300.25927   -15.183316    114423.66   -40930.546    6465.5945    8256.5261    130954.72   -40943.038 
  164250    300.40395   -156.58786    114099.75   -40940.514    6468.7099    8145.0641    131053.22   -40951.299 
  164500    302.23731   -168.67825    113874.09   -40880.304    6508.1883    8103.9823    131154.36   -40893.642 
  164750    301.26592    196.74004    113487.26   -40968.502     6487.271    8304.8432    130864.04   -40982.654 
  165000    298.89993   -262.57575    114574.86   -40880.845    6436.3233     8118.956    131146.31   -40892.175 
  165250    297.22616    132.59359    113799.24   -40946.154    6400.2813    8295.9724    130901.87   -40955.269 
  165251    297.53274    133.79714    113796.57   -40950.563    6406.8832    8296.1942    130898.46   -40959.022 
Loop time of 10508.8 on 1 procs (1 MPI x 1 OpenMP) for 100000 steps with 10825 atoms

Pair  time (%) = 7853.73 (74.735)
Bond  time (%) = 0.375171 (0.00357008)
Kspce time (%) = 776.908 (7.39295)
Neigh time (%) = 1134.49 (10.7956)
Comm  time (%) = 29.8006 (0.283578)
Outpt time (%) = 0.440011 (0.00418709)
Other time (%) = 713.023 (6.78504)

FFT time (% of Kspce) = 114.906 (14.7901)
FFT Gflps 3d (1d only) = 2.39988 4.81241

Nlocal:    10825 ave 10825 max 10825 min
Histogram: 1 0 0 0 0 0 0 0 0 0
Nghost:    26481 ave 26481 max 26481 min
Histogram: 1 0 0 0 0 0 0 0 0 0
Neighs:    3.54103e+06 ave 3.54103e+06 max 3.54103e+06 min
Histogram: 1 0 0 0 0 0 0 0 0 0

Total # of neighbors = 3541026
Ave neighs/atom = 327.116
Ave special neighs/atom = 2.00813
Neighbor list builds = 9073
Dangerous builds = 0
write_restart   confout-1.data
PPPM initialization ...
  G vector (1/distance) = 0.264772
  grid = 36 20 20
  stencil order = 5
  estimated absolute RMS force accuracy = 0.0369716
  estimated relative force accuracy = 0.000111339
  using double precision FFTs
  3d grid and FFT values/proc = 29889 14400
