LAMMPS (24 Apr 2013)
WARNING: OMP_NUM_THREADS environment is not set. (../comm.cpp:100)
  using 1 OpenMP thread(s) per MPI task
# ----------------- Init Section -----------------
units           real
atom_style      full
boundary	p p p
kspace_style	pppm 1.0e-4

# ----------------- Atom Definition Section -----------------
read_restart	confout-0.data
  orthogonal box = (4.40364 2.10174 2.10174) to (83.5964 39.8983 39.8983)
  1 by 1 by 1 MPI processor grid
  10825 atoms
  7224 bonds
  3600 angles
  2 = max # of 1-2 neighbors
  2 = max # of 1-3 neighbors
  4 = max # of 1-4 neighbors
  6 = max # of special neighbors

# ----------------- Settings Section -----------------------

group 		spc		type	1 2
10800 atoms in group spc
group		end_atom	id 	10801
1 atoms in group end_atom

# ----------------- Run Section -----------------
# Write initial structure out
dump            icrd all custom 5 system-1.lammpstrj id mol type x y z ix iy iz
dump_modify     icrd sort id
run             1
WARNING: No fixes defined, atoms won't move (../verlet.cpp:54)
PPPM initialization ...
  G vector (1/distance) = 0.264943
  grid = 36 20 20
  stencil order = 5
  estimated absolute RMS force accuracy = 0.0367581
  estimated relative force accuracy = 0.000110696
  using double precision FFTs
  3d grid and FFT values/proc = 29889 14400
Memory usage per processor = 36.0144 Mbytes
Step Temp E_pair E_mol TotEng Press 
   65250    201.89139   -35543.247    4.9315468   -29024.433    24542.416 
   65251    201.89139   -35543.247    4.9315468   -29024.433    24542.416 
Loop time of 0.116112 on 1 procs (1 MPI x 1 OpenMP) for 1 steps with 10825 atoms

Pair  time (%) = 0.107483 (92.5683)
Bond  time (%) = 0.000718117 (0.618469)
Kspce time (%) = 0.00756192 (6.51261)
Neigh time (%) = 0 (0)
Comm  time (%) = 0.000215054 (0.185212)
Outpt time (%) = 6.60419e-05 (0.0568778)
Other time (%) = 6.79493e-05 (0.0585205)

FFT time (% of Kspce) = 0.00115453 (15.2676)
FFT Gflps 3d (1d only) = 2.38851 4.82805

Nlocal:    10825 ave 10825 max 10825 min
Histogram: 1 0 0 0 0 0 0 0 0 0
Nghost:    26442 ave 26442 max 26442 min
Histogram: 1 0 0 0 0 0 0 0 0 0
Neighs:    3.56182e+06 ave 3.56182e+06 max 3.56182e+06 min
Histogram: 1 0 0 0 0 0 0 0 0 0

Total # of neighbors = 3561820
Ave neighs/atom = 329.036
Ave special neighs/atom = 2.00813
Neighbor list builds = 0
Dangerous builds = 0

# Reset the timestep
undump          icrd

# Timestep and Neighbour searching
timestep		2.0
neighbor        2.0 bin
neigh_modify	delay 4 every 1 check yes

# Fixes
fix 		pull end_atom addforce 0.10 0.0 0.0
fix 		shake spc shake 0.0001 10 0 b 1 a 1
  0 = # of size 2 clusters
  0 = # of size 3 clusters
  0 = # of size 4 clusters
  3600 = # of frozen angles
fix   		npt all npt temp 300.0 300.0 100.0 iso 1.0 1.0 1000.0

# Initial velocity
#velocity		all create 300 432567 dist uniform

# Write out thermodynamic information
thermo_style    custom step temp press vol pe ke evdwl ecoul epair
thermo	        250

# Write out trajectory
dump            cxtc all xtc 250 traj-1.xtc

# Write out velocity
#dump 			1 all custom 1 vel_npt.txt vx vy vz

# Checkpoint files
restart         5000 state_cpt-*.data

# Final run command
run             100000
PPPM initialization ...
  G vector (1/distance) = 0.264943
  grid = 36 20 20
  stencil order = 5
  estimated absolute RMS force accuracy = 0.0367581
  estimated relative force accuracy = 0.000110696
  using double precision FFTs
  3d grid and FFT values/proc = 29889 14400
Memory usage per processor = 36.0852 Mbytes
Step Temp Press Volume PotEng KinEng E_vdwl E_coul E_pair 
   65251    302.50171    312.16458    113132.94   -35538.315    6513.8819     6245.535     138315.2   -35543.247 
   65500    300.81671    108.67486    113011.93   -35427.169    6477.5981    6053.1024    138600.86    -35433.34 
   65750     298.9574   -276.85751    113191.16   -35519.934    6437.5609    5922.9414    138652.52   -35522.166 
   66000    301.06246   -187.21075    113446.88   -35546.297    6482.8899      6011.99    138538.57   -35550.096 
   66250    297.82311   -129.78077    112794.93   -35454.932    6413.1358    5983.3004    138649.27    -35458.07 
   66500    301.75073   -151.29059    113303.99   -35472.435    6497.7107    5993.4274    138629.22   -35476.241 
   66750    303.24948    147.36263    112790.83   -35516.061    6529.9838    6130.1774    138453.84    -35521.63 
   67000    300.28476    229.67111    112533.66    -35470.02    6466.1433    6124.6548    138511.66    -35473.29 
   67250     297.1158   -333.88852    112721.16   -35756.167     6397.905    5976.5825     138373.2   -35758.786 
   67500    299.56136   -463.69518    113694.16   -35450.712    6450.5662    5872.2517    138779.64   -35454.231 
   67750    299.75362    26.277453    112470.32   -35377.496    6454.7062    5976.1474    138747.12   -35380.437 
   68000    301.98155    214.50556    112408.49   -35466.763     6502.681     6083.062    138552.16   -35470.097 
   68250    302.14263   -209.95212    112709.86   -35535.205    6506.1495    5939.6564    138620.22   -35539.127 
   68500    301.01714    -76.31475    111861.61   -35412.433    6481.9139    5945.0189    138740.97   -35416.266 
   68750     297.6179    126.30283    112699.29     -35428.8     6408.717    6121.1741     138547.7   -35433.453 
   69000    302.51918   -244.44148    113263.15   -35525.023    6514.2579    5946.0244    138622.32   -35528.961 
   69250    304.51884   -97.379769    112909.96   -35597.426    6557.3174    6080.9187    138417.05   -35600.439 
   69500    298.39255   -7.4332208    112210.11   -35553.494    6425.3977    6031.8882    138510.22   -35559.232 
   69750    295.89388    60.326492    111987.36   -35635.199     6371.593     6090.574    138382.51   -35637.456 
   70000    298.30345   -287.93352    112162.44   -35524.589     6423.479    5900.7193    138670.44   -35530.142 
   70250    299.23767    222.49032    112889.29   -35571.684    6443.5961     6197.692    138333.82   -35574.672 
   70500    295.25002   -513.12542    113052.73    -35539.32    6357.7284    5854.0105    138701.96   -35544.458 
   70750    298.41399   -84.622145    113036.43   -35427.547    6425.8594    6011.2463    138664.23   -35434.253 
   71000    299.31809   -59.387475    113456.72   -35455.735    6445.3276    6059.8711    138575.97   -35461.007 
   71250    301.42614    54.588423    113638.56   -35149.767    6490.7212    5936.7198     139006.2   -35155.042 
   71500    299.51083   -175.75582    113081.94   -35535.673    6449.4781    5985.3961    138579.87   -35541.811 
   71750    299.30458    362.24183    111951.09    -35557.44    6445.0369    6200.6358    138338.21   -35563.347 
   72000    301.46777   -195.00082    112293.86   -35442.122    6491.6176    5905.9205    138749.12   -35448.399 
   72250     300.0087     173.9701    112139.17   -35414.975    6460.1989    6048.9023    138617.87    -35419.93 
   72500    300.00415   -257.82747    112823.95   -35502.106    6460.1008    5946.9432     138637.3   -35507.871 
   72750    300.49171    154.25798    112599.28   -35439.132    6470.5996    6113.5293     138542.6   -35446.774 
   73000    301.16818   -269.66729    112423.44   -35370.167    6485.1665    5815.3871    138907.95   -35378.946 
   73250    296.83568   -47.457587    111999.21   -35393.173    6391.8731    5960.1053    138733.29    -35403.51 
   73500    308.37941    31.683411    112629.34   -35455.166    6640.4485    6006.3936    138635.16   -35461.507 
   73750    301.95615   -334.93219    112842.28   -35498.678    6502.1341    5877.2839     138717.8   -35503.474 
   74000    298.04676    295.10527    112524.06   -35404.476    6417.9516    6154.8369    138534.76   -35411.956 
   74250    302.47306    34.409675    111320.61   -35589.206    6513.2649    6006.1911    138498.93   -35595.467 
   74500    298.36698    -187.4539       112381   -35612.184    6424.8472    5934.1057    138551.18   -35616.408 
   74750    297.30568    98.063546    112577.02   -35435.075    6401.9937     6102.481    138555.04    -35441.75 
   75000    303.04633   -88.847237    112366.47   -35486.859    6525.6094    5977.9791    138632.61   -35494.356 
   75250    299.98886    37.597013    112431.71   -35338.547    6459.7716    6031.7073     138725.7    -35350.34 
   75500    298.97853   -16.260749    112401.04   -35723.119    6438.0158    6117.4764    138251.38   -35731.728 
   75750    296.00116    237.19948    112081.29   -35436.571    6373.9031    6102.8061    138551.94   -35443.598 
   76000    297.57571   -443.10047    113539.69   -35621.304    6407.8085    5978.3042    138493.53   -35629.299 
   76250    303.75487   -292.46408    112492.68   -35568.675    6540.8665    5901.4428    138608.06   -35579.113 
   76500    299.79576    122.19075    112119.04   -35490.619    6455.6137    6086.2233    138516.07   -35497.353 
   76750    297.16911    285.61251    112485.27   -35427.837     6399.053    6175.3954    138492.52    -35435.61 
   77000    295.38527   -202.55768    113063.75   -35428.588    6360.6408    5953.3064    138711.78   -35440.589 
   77250    297.27005    84.659292    112600.42   -35628.978    6401.2266    6185.7679    138270.36   -35640.039 
   77500    298.37473   -15.015992    112097.55   -35639.755    6425.0139    6073.6285    138373.13   -35647.863 
   77750    297.48284      25.5478    112052.93   -35527.635    6405.8087    6069.4564    138501.44   -35536.658 
   78000    299.38821    312.90207    111126.12   -35735.645    6446.8376    6204.3296    138147.99   -35743.587 
   78250    302.63524   -233.49007     112308.1   -35592.267    6516.7572     5945.861    138560.92   -35600.646 
   78500    297.84539    64.822146    111842.23   -35461.443    6413.6155    6002.4455    138629.38   -35470.573 
   78750    302.09716    92.327721     112592.9   -35461.268    6505.1705    6057.6463    138570.66   -35467.752 
   79000    299.23748    244.45934    112661.99   -35516.572     6443.592    6200.3464    138382.29   -35521.697 
   79250    298.81114   -226.73256    112751.02    -35393.14    6434.4114    5908.5409    138791.19   -35399.994 
   79500    298.64706   -89.064254    112626.15   -35395.941    6430.8782    5971.8419    138727.17   -35401.885 
   79750     296.0332      209.808    113045.05   -35407.934    6374.5929    6113.3222     138569.2   -35416.559 
   80000    299.84435    234.16939    112749.69   -35528.944    6456.6598    6171.0433    138389.67    -35539.77 
   80250    298.09919    43.628769    112077.41   -35633.593    6419.0806    6095.8782     138367.2   -35638.302 
   80500    307.11714    49.396394    112289.93   -35592.868    6613.2676    6083.8038    138421.09   -35601.673 
   80750     299.2213   -345.79337    113485.36   -35450.688    6443.2434    5920.1903    138728.24   -35460.357 
   81000    299.44138   -31.239133    112893.64    -35583.69    6447.9825    6056.1648    138448.72   -35588.364 
   81250    300.09205    193.66989    112968.75   -35372.043    6461.9937     6127.689    138587.01   -35378.027 
   81500    300.57698    214.28644    112420.81   -35478.049    6472.4358    6122.2758    138495.59   -35485.773 
   81750    301.43527    140.40753    112938.49   -35402.226    6490.9177    6080.4241    138605.72   -35409.865 
   82000    302.06247    119.62219    113872.98   -35344.051    6504.4236    6100.6143    138644.13   -35351.458 
   82250    298.36355    88.731612    114552.66   -35302.126    6424.7733    6147.9265    138641.55   -35311.405 
   82500    300.58064    176.91006    113057.98   -35403.391    6472.5147    6123.1933    138571.74   -35409.814 
   82750    297.84885   -42.297064     112988.1   -35479.566    6413.6901    6039.4711    138574.92   -35484.507 
   83000    296.41596      69.4702     112451.4   -35468.324    6382.8351    6093.1591    138527.82   -35474.854 
   83250    304.71671    283.09835    112052.83   -35623.242    6561.5783    6186.9648    138293.01   -35629.394 
   83500    302.00592   -9.4475066    112143.26   -35543.279    6503.2058    6009.2398    138541.24   -35549.768 
   83750    304.15015    50.798164    111683.67   -35434.177    6549.3783    5977.7991    138685.67   -35443.844 
   84000     293.0174   -123.34405    112788.21   -35376.407    6309.6526    5905.8141    138813.51   -35386.637 
   84250    298.10337    -45.92436    112375.58   -35455.856    6419.1707    5966.3488    138673.86     -35464.7 
   84500    297.72898    223.17519    112442.32   -35318.592    6411.1089     6088.752    138686.47   -35326.433 
   84750    304.88159    40.745243    112212.33   -35465.626    6565.1285    6021.6843    138598.86   -35477.192 
   85000    304.85038   -102.81253    112381.24   -35421.481    6564.4565    5940.0506    138731.54    -35429.55 
   85250    301.41299    22.869053    112386.55   -35432.403     6490.438    6022.1288    138635.75   -35442.989 
   85500    300.77959   -34.429182    112404.29   -35546.861    6476.7986    6052.7164    138487.73   -35553.987 
   85750    298.95498   -191.87268     112029.6   -35422.007    6437.5087    5889.0337    138785.06   -35429.571 
   86000    299.89221   -45.464074    111760.49   -35618.269    6457.6904    6010.3424    138472.43   -35626.196 
   86250    296.73544   -40.352105    112360.38   -35538.021    6389.7145    6026.7344     138530.3   -35547.366 
   86500    301.96461    117.57982    111937.78   -35467.884    6502.3162    6051.8549    138572.76   -35477.103 
   86750    302.64329    141.92814    111392.66    -35503.35    6516.9304    6028.0998    138559.54   -35512.116 
   87000    300.09607   -256.26941     112444.6   -35352.799    6462.0802    5840.0778    138900.84   -35358.289 
   87250    303.44644    144.76171    112670.11    -35532.21    6534.2249    6104.0567    138461.17   -35540.515 
   87500    301.07579    115.73229    111954.63   -35504.801     6483.177    6073.8749    138520.87   -35510.728 
   87750    300.21065    369.47317    111959.86   -35439.907    6464.5475    6159.4774    138493.64   -35445.003 
   88000    300.08508   -41.019692    113125.03   -35306.658    6461.8437    5999.6174    138788.27     -35317.2 
   88250    298.10941   -49.704749    112810.24   -35476.562    6419.3007    6028.0895    138591.85    -35484.11 
   88500    297.71899   -122.61324    113059.91   -35376.205    6410.8937     5955.624    138764.68    -35384.33 
   88750    296.02806   -253.17361    114043.06   -35264.964    6374.4823    5930.8535    138896.83   -35272.429 
   89000    300.56136   -276.92246    113132.72   -35432.427    6472.0995    5952.1659    138707.41   -35441.828 
   89250     301.9021    177.99165     113082.2   -35375.303    6500.9701     6080.752     138635.9   -35384.074 
   89500    303.74703   -71.373492     113039.8   -35358.929    6540.6976    5966.3439    138764.51   -35365.557 
   89750    302.79362   -30.109519    112913.61   -35442.145    6520.1675    5989.7408    138659.93   -35450.081 
   90000    299.89635   -71.703112    112607.73   -35586.122    6457.7797    6008.8356    138501.04   -35593.214 
   90250    295.88606    207.02855    112115.73    -35432.34    6371.4245    6097.2521    138571.49   -35438.553 
   90500    303.52332   -43.177565    112949.65   -35540.388    6535.8806    6041.2916    138523.59   -35545.668 
   90750    298.47585    248.33665    112652.32   -35377.107    6427.1915    6110.8475    138597.84   -35384.568 
   91000    290.86343   -121.28079    112893.15   -35528.624    6263.2703    5970.3917    138589.71   -35535.887 
   91250    301.22812    174.19978       112600   -35494.615    6486.4571     6099.861     138500.5   -35500.147 
   91500    300.26144     262.2566    112674.38   -35377.394    6465.6413    6126.9577    138588.74   -35385.179 
   91750    298.29618    75.382611    112503.27   -35499.033    6423.3225    6068.9235    138526.82   -35504.518 
   92000    301.24488   -120.12146    112335.62   -35518.141     6486.818    5951.0734    138628.13   -35522.994 
   92250    300.25181   -415.75683     112570.5     -35677.5     6465.434    5895.2245    138535.01    -35683.32 
   92500    299.44263    122.61731    112472.78   -35496.513    6448.0094    6115.9084    138490.17   -35502.698 
   92750    300.19983     234.8072    113108.98   -35627.804    6464.3145    6257.1953    138219.27   -35632.878 
   93000    300.42807   -216.71232    113121.15   -35462.647    6469.2294    5943.9335    138700.78    -35467.54 
   93250    302.01925     450.1417    112059.98   -35439.119    6503.4929    6186.7112     138479.5   -35444.426 
   93500    299.05531   -255.18793    113024.89   -35479.168    6439.6692    5941.9837    138664.74   -35484.271 
   93750    298.08886    215.53621    112374.37   -35485.671    6418.8583    6137.2034    138465.64   -35493.534 
   94000    300.25472   -242.55166     112712.1   -35421.054    6465.4965    5921.7635    138748.63   -35426.908 
   94250    302.87472   -101.10538     113133.2   -35486.192     6521.914    6022.4376    138582.63   -35492.931 
   94500    301.36401   -381.91941    113281.08   -35641.001    6489.3833    5935.4454    138520.71   -35648.486 
   94750    297.65857   -270.63044    113714.73       -35357    6409.5926    5942.3277    138795.96    -35361.51 
   95000    296.60602   -169.46514    113486.23   -35406.162    6386.9276    5959.4991    138725.81   -35413.976 
   95250    301.07247    122.53176    112691.74   -35566.338    6483.1054    6134.3301    138394.77   -35572.681 
   95500    300.42259   -108.83022    112957.03    -35386.88    6469.1114    5940.5127    138763.55   -35394.592 
   95750    298.63783    215.64041     112392.3   -35442.735    6430.6794    6114.6799    138536.37   -35450.433 
   96000    300.75016    318.93861    111877.18   -35482.308     6476.165    6143.9177    138463.43   -35491.116 
   96250    301.28425   -113.58915    113011.08   -35456.349    6487.6657    6014.1666       138612   -35465.673 
   96500    301.42727    409.32787    112693.29   -35448.691    6490.7455    6224.4934    138410.97   -35460.298 
   96750    307.53947    143.23366    111966.98   -35558.072    6622.3617    6123.6511    138418.35   -35563.091 
   97000    299.75523    -76.52136    113449.65   -35256.488    6454.7409    5984.2922    138850.46   -35265.648 
   97250     298.0551    -83.24221    113007.82   -35327.609    6418.1314    5961.5974    138806.64   -35332.805 
   97500    301.91007    243.52943    112309.63   -35501.755    6501.1418    6127.5369    138461.54   -35508.623 
   97750    299.17154   -328.22177    112850.03   -35562.489     6442.172    5927.5157    138617.31   -35569.653 
   98000    295.97209    159.33837    112048.69   -35670.004    6373.2771    6157.5183    138271.11    -35676.74 
   98250    305.21891   -35.826651    113549.33   -35463.117    6572.3922    6068.6478    138563.63   -35473.943 
   98500    300.34843   -76.161847    112821.42   -35640.506    6467.5145    6052.3247    138408.07   -35647.463 
   98750    301.45522    90.436823    112287.85   -35484.482    6491.3473    6034.9637    138572.58   -35495.361 
   99000    300.71846    -78.52847    112102.76   -35394.138    6475.4825     5942.736    138758.63   -35402.852 
   99250    302.32761    609.27024    111501.84   -35534.546    6510.1328    6300.3496    138260.74   -35543.186 
   99500    301.55793   -70.595327    111927.43   -35397.206     6493.559    5961.1971    138733.38   -35406.195 
   99750    295.48063     -102.318    111941.65   -35398.652    6362.6942    5956.7722    138737.99    -35407.96 
  100000    304.26815    -281.8486    112652.48   -35427.889    6551.9191    5848.8887     138819.2   -35436.321 
  100250     296.4716    213.61094    112087.57   -35429.244    6384.0331    6099.6648    138561.66   -35438.913 
  100500    297.53903    206.72426     112314.2   -35539.025    6407.0186    6145.0065    138411.29   -35547.513 
  100750    299.26348   -134.57379    113292.48   -35446.582    6444.1517    5999.2314    138647.54   -35454.303 
  101000    298.24148    91.664148    113269.55   -35421.115    6422.1447    6074.2455    138583.65   -35427.774 
  101250    296.88308   -72.481061    112824.01   -35393.618    6392.8937    5989.8357    138707.62   -35400.521 
  101500    299.09266    83.336093    111935.44   -35501.806    6440.4734    6042.7483    138551.01   -35508.135 
  101750    306.70371     80.10257    111762.43   -35544.729     6604.365    6019.9552    138525.73   -35554.056 
  102000    303.22062    85.394855    112611.93   -35591.813    6529.3623    6097.6826    138409.56   -35598.056 
  102250    301.67594   -182.74324    113553.27   -35533.274    6496.1003    6039.7196    138521.15   -35539.155 
  102500    302.09369    199.97714    112839.57   -35627.146    6505.0958    6199.1283    138271.36   -35633.395 
  102750    300.32084   -22.727859    112023.05   -35607.279    6466.9203     6016.157    138485.21   -35611.672 
  103000    302.19575   -164.57433    112889.58   -35545.709    6507.2934    5992.8137    138551.27    -35550.38 
  103250    302.50357   -21.781305    113179.13   -35463.031    6513.9219    6076.2896    138549.49   -35468.096 
  103500    296.83148    -24.16329    112756.87    -35585.84    6391.7827    6089.6655    138417.75   -35590.601 
  103750    302.88836    39.475981    111601.93    -35544.01    6522.2077    6021.5357    138543.88   -35549.458 
  104000    303.89525   -223.55346    112173.22   -35552.249    6543.8895    5919.7877    138622.21   -35557.768 
  104250    301.00541   -148.35762    112510.34   -35524.726    6481.6615    5982.7057     138587.2   -35529.444 
  104500    302.18578   -242.51891     112852.1   -35583.709    6507.0787    5981.3074    138528.25   -35588.587 
  104750    303.43691    137.61447    112447.47   -35395.666    6534.0198    6024.0372    138676.79   -35403.677 
  105000    299.92818    122.96314    112387.97   -35455.845     6458.465    6059.7502    138576.61   -35463.043 
  105250    301.15445    -234.6196    112912.82   -35533.668    6484.8707    5974.4229    138586.01    -35543.11 
  105500    301.05164   -183.17827    112740.57   -35573.976     6482.657     5992.921    138518.18    -35584.32 
  105750    302.11571   -335.89804    112618.12   -35624.422      6505.57    5899.8587    138579.48   -35631.481 
  106000    298.29558     71.03828    112614.65   -35727.971    6423.3097    6188.1919    138173.04   -35736.589 
  106250    297.38586    18.983281       112487   -35524.336    6403.7203    6044.7875    138525.41   -35531.768 
  106500    301.84921    33.546744    113166.37   -35549.476    6499.8313    6109.6439    138426.37   -35556.305 
  106750    300.20402    134.18202    113402.51   -35511.199    6464.4047    6175.2479     138403.1   -35519.943 
  107000     298.5934    -152.2467       112926    -35710.09    6429.7227    6075.9357    138312.94    -35717.22 
  107250     295.2655   -454.66931    113428.17   -35630.225    6358.0618    5904.4056    138551.02   -35638.985 
  107500    302.76434    310.90276    112477.13   -35438.577    6519.5371    6155.0917     138504.4   -35443.034 
  107750    301.38157    36.612482    112357.02   -35464.679    6489.7613    6000.8743    138635.44   -35471.546 
  108000    297.26212   -156.85686    112728.35   -35480.419    6401.0558    5926.8075    138683.56   -35487.619 
  108250    305.21731    233.98239    112585.43    -35413.52    6572.3579    6089.4007    138601.18   -35420.263 
  108500    304.45666    405.52691    112513.49   -35571.451    6555.9785     6237.119    138285.95   -35582.277 
  108750     298.5699    154.72108    112663.46   -35389.428    6429.2168    6080.0587    138618.08   -35403.008 
  109000    303.33552    156.20592    112119.02    -35487.26    6531.8365    6030.4404    138573.89   -35500.516 
  109250    297.77619   -274.11216    112940.25   -35421.705    6412.1255    5897.9482    138777.15   -35431.674 
  109500    300.26282    170.55068    111149.16   -35515.964     6465.671    6024.4009    138555.64   -35524.842 
  109750    298.21674   -98.180635    112386.61   -35478.417    6421.6119    5984.8194    138634.59   -35487.317 
  110000    303.33616    204.07302    112165.47   -35548.914    6531.8504    6173.6683    138374.13   -35558.671 
  110250    299.18437   -112.24899       112602   -35576.115    6442.4482    6041.5011    138483.58   -35588.196 
  110500     300.2665   -2.0380947    112032.93    -35751.74    6465.7502    6100.9952    138245.11   -35758.925 
  110750    296.50795    15.697392    111788.96   -35553.699     6384.816    6069.9567    138472.31   -35561.166 
  111000    299.96792   -169.61565    112679.47   -35585.086    6459.3208    5999.9048    138505.59   -35599.717 
  111250    297.39679   -224.51986    113204.19   -35415.063    6403.9557    5939.2817    138738.61   -35424.643 
  111500    303.56675    52.792605    113309.71    -35372.14    6536.8158    6046.5575    138667.18   -35383.183 
  111750    299.86879     111.2274    112588.02   -35440.631    6457.1862    6050.0843    138598.52   -35450.008 
  112000    300.41249    328.72182    112077.38   -35651.165    6468.8938    6265.9108    138170.56   -35663.579 
  112250    300.30975    188.43739    113215.83    -35242.01    6466.6815    6060.7183    138785.48   -35249.478 
  112500    300.23557    84.758469    112461.55   -35572.282    6465.0842    6075.0005    138441.41    -35579.73 
  112750    300.23328    133.72976    112219.22   -35504.487    6465.0349    6133.0395    138457.58   -35516.567 
  113000    300.99486   -27.495484    112357.48     -35527.4    6481.4341     6018.347    138543.09   -35539.418 
  113250     300.2152   -31.742482    112211.24   -35494.352    6464.6456    6021.7553    138577.91    -35506.92 
  113500    303.88808    78.755774    112289.67   -35564.645    6543.7351    6054.5495    138476.76   -35576.648 
  113750    304.06182    43.307376    112857.18    -35529.74    6547.4762    6104.1297    138460.76   -35541.217 
  114000    301.72392    241.78402    112924.81   -35346.434    6497.1333    6105.4321    138638.32   -35358.426 
  114250    303.24128   -110.86749     113148.3   -35354.197    6529.8073    5931.0685    138805.22   -35365.484 
  114500    298.23595    88.155496    113059.85   -35471.285    6422.0256    6125.7924    138498.28    -35480.34 
  114750    297.76214   -80.421701    112226.66   -35388.041     6411.823    5931.2057    138777.75   -35399.094 
  115000     299.9706   -290.02737    113057.58   -35373.739    6459.3785    5887.7083    138827.67   -35382.589 
  115250    299.99049   -79.123277    113475.45   -35358.775    6459.8068    6027.0372    138712.56   -35367.548 
  115500    299.00502    35.114394    112724.65   -35342.771    6438.5862    6028.6041    138724.77   -35350.517 
  115750    297.15247   -94.576291    112390.18   -35666.535    6398.6946     6061.091    138360.84   -35678.704 
  116000    298.32582   -214.79197     112601.7   -35515.444    6423.9608    5958.5259    138615.29   -35524.785 
  116250    295.42351   -2.1644856    112457.53   -35579.662    6361.4643     6043.274    138475.27   -35587.362 
  116500    306.63879    29.941301    112386.97   -35526.097    6602.9671    6078.1438    138476.34   -35535.394 
  116750    295.35746    356.59396    111941.73   -35418.643    6360.0421    6143.0892    138529.29   -35432.987 
  117000    299.27479     -88.5186    112807.76   -35479.167    6444.3954    6004.1425    138608.96   -35486.243 
  117250    298.98043   -2.1108167     112650.4   -35404.149    6438.0568     6028.339    138662.42   -35411.426 
  117500    298.28191    317.79887    112415.62   -35304.797    6423.0152    6137.4827    138646.91   -35315.907 
  117750    301.18747   -228.47598    113233.39    -35608.41    6485.5817    6016.0882    138474.83   -35618.342 
  118000    292.52316   -1.8937532     112683.7   -35542.377    6299.0101    6091.6876    138459.71   -35548.089 
  118250    301.12477   -214.91805    113163.93   -35371.826    6484.2316    5885.3787     138837.9   -35387.657 
  118500    299.62378    403.57131    111804.29   -35647.102    6451.9102    6260.7114    138189.12   -35655.268 
  118750    300.69315   -260.73139    113213.46   -35583.036    6474.9374    5964.7951    138543.76   -35593.711 
  119000    296.67812   -437.09463    113068.01   -35396.285    6388.4802    5829.2993    138854.08   -35411.641 
  119250      297.721   -31.111563    111586.67   -35523.339     6410.937    5947.0231    138622.71   -35531.175 
  119500    303.07165    -329.6866    112289.06   -35508.846    6526.1545    5885.5156    138694.79   -35521.705 
  119750    299.82199    132.46676    112349.17   -35541.336    6456.1785    6102.6471    138459.01   -35550.484 
  120000    301.03165   -251.15128     112763.5   -35423.894    6482.2263    5924.8909    138732.43   -35433.833 
  120250    304.93192    173.44299    112478.64   -35471.034    6566.2124    6107.9065    138505.05   -35480.973 
  120500    302.13848    242.06736    112415.34   -35541.742    6506.0603    6169.7019    138377.46    -35557.12 
  120750    301.29736   -45.956625    112659.97   -35630.019     6487.948    6094.6349    138368.89   -35643.133 
  121000    299.89719   -211.18271    112728.57   -35507.407    6457.7977     5917.878    138660.78   -35519.774 
  121250     303.0058    484.22933    112188.19   -35527.959    6524.7365    6262.8402    138296.35   -35540.914 
  121500    300.38098   -244.10005    113085.61   -35594.893    6468.2153    6002.5121    138504.69   -35605.763 
  121750    298.96125     241.6965    112321.32   -35532.471    6437.6437     6163.511    138391.49   -35543.651 
  122000    298.33556   -215.11881    112966.05   -35404.551    6424.1705    5931.0723    138756.82   -35412.823 
  122250    300.28856   -31.296228    113262.67   -35371.808    6466.2252    5981.7513    138734.84   -35381.382 
  122500    301.69206   -379.22606    113204.08   -35609.756    6496.4473    5941.3833    138537.81   -35620.786 
  122750    297.62176   -72.264829    112560.51   -35502.153    6408.8001    6044.9112    138537.28   -35511.622 
  123000    301.79305    128.28769    112211.78     -35605.2     6498.622    6095.4515    138383.76    -35615.96 
  123250    297.10311   -309.73309    113207.12    -35538.79    6397.6317    5960.1368    138590.04   -35546.595 
  123500    301.26461    147.91992    112964.03   -35483.784    6487.2429    6128.7477    138482.19   -35488.684 
  123750    297.36509   -153.78187    113457.72   -35385.247    6403.2731    6024.7963    138687.05    -35390.28 
  124000    296.96633   -163.08488    111716.05   -35670.467    6394.6864     5972.937    138448.57   -35677.779 
  124250    297.53194   -345.98802    112278.15    -35509.61    6406.8658    5875.6474    138706.61   -35513.391 
  124500    301.18423    29.259424    112073.86   -35454.499    6485.5121    5998.2848     138647.5   -35463.781 
  124750     301.4091    164.15004    111963.55   -35380.055    6490.3542    6041.9368    138676.04   -35387.023 
  125000    300.69124    71.122592    112769.99   -35342.769    6474.8963    5990.8005    138760.36   -35353.099 
  125250    297.82023    215.07961    112144.71    -35489.04    6413.0738    6104.5338    138505.64   -35497.255 
  125500    301.17067    146.99112    111827.88   -35435.866      6485.22    6027.2299    138629.03   -35441.084 
  125750    297.43469   -318.20512    112833.26   -35553.991    6404.7718     5932.825    138614.17   -35560.323 
  126000    294.41538    58.749366    112554.67   -35526.629    6339.7559    6116.3058    138446.98   -35535.028 
  126250    297.41446   -96.462521    113375.13   -35477.185    6404.3361    6081.3491    138528.27   -35485.272 
  126500    296.07583   -62.608705    112280.31   -35782.017    6375.5109    6117.3448    138198.18   -35786.932 
  126750    303.46947    483.27568    111477.23    -35543.04     6534.721     6211.427    138332.66   -35552.605 
  127000    297.83054    285.30335    112747.22   -35382.391    6413.2958    6154.9954    138562.64   -35387.994 
  127250    302.05038   -154.05436    113328.53   -35430.484    6504.1632     6002.772    138663.07   -35437.528 
  127500    301.05828    105.98525    112006.32     -35551.7    6482.7999     6030.065    138513.54   -35557.739 
  127750    303.32658    216.77517     112875.3   -35409.288     6531.644    6127.5627    138547.01   -35415.557 
  128000    300.63464   -61.146488     112223.8   -35515.112    6473.6776    5948.5649    138635.05   -35520.405 
  128250        297.9    149.05118    112911.89   -35381.828    6414.7915    6078.7921    138631.15    -35390.15 
  128500    305.16888   -59.497059     113521.6   -35457.735     6571.315    6030.5502     138612.8   -35465.012 
  128750    307.47993    367.44936    112810.52   -35484.603    6621.0797    6207.3107    138397.27    -35490.03 
  129000    300.80333    113.77832    112869.14     -35330.7      6477.31    6046.5529    138720.75   -35337.215 
  129250    299.15894   -118.24818    113133.46   -35286.855    6441.9006    5954.1098    138849.73   -35293.718 
  129500    292.76732    138.32093    113654.67   -35264.936    6304.2676    6083.7152    138752.16   -35272.447 
  129750    303.22392    112.71076     113572.2   -35524.162    6529.4335    6180.0374    138388.11   -35527.566 
  130000    298.12723    242.86262    112321.99   -35516.976    6419.6844    6159.7503     138413.4   -35523.034 
  130250    303.06836    134.49315    112563.94    -35361.14    6526.0837    6015.5425     138720.2   -35365.366 
  130500    295.06838    42.992684    112473.56   -35203.253    6353.8172    5921.3974    138972.14   -35208.498 
  130750     296.9955   -249.03468    112795.55   -35307.853    6395.3145    5825.8902    138961.04    -35313.93 
  131000    298.98673   -353.66398     112643.4   -35530.999    6438.1924    5836.2919    138722.74   -35537.017 
  131250    299.04385   -83.594153    112078.27    -35782.27    6439.4225    6071.1852    138255.95   -35787.358 
  131500    301.91082   -268.29674    112817.14   -35574.156    6501.1579     5948.698    138574.11   -35579.289 
  131750     299.1085   -30.535436    112053.56   -35442.223    6440.8145    5968.5985    138679.23   -35447.839 
  132000    297.85386   -59.115827    111860.63   -35621.876    6413.7979    6006.1871    138468.02   -35628.994 
  132250     301.2682    -123.1141    112323.43   -35462.647    6487.3202    5959.9566    138667.33   -35469.701 
  132500    297.63752   -193.73192     112971.8   -35390.609    6409.1394    5907.9725    138790.92   -35397.729 
  132750    299.99629   -39.945135     111841.1   -35649.248    6459.9316    6026.6916    138412.17   -35657.964 
  133000    297.98513   -161.64986     112368.9   -35548.108    6416.6246    5946.2086    138611.03   -35553.723 
  133250    300.02914     193.4594    111869.58   -35534.896    6460.6391    6117.2224    138443.48   -35540.042 
  133500    295.30912   -39.595679    112065.09   -35647.908     6359.001    6058.0622    138397.05   -35652.106 
  133750    295.89305    90.767496    111982.32   -35545.091    6371.5751    6065.0564     138490.5    -35553.91 
  134000    297.72046    14.058411    112573.34   -35450.788    6410.9253    6056.7985     138594.6   -35454.704 
  134250    296.88114     -249.546    113478.35    -35463.58     6392.852    5964.7005    138669.25   -35468.941 
  134500     301.6037    98.205137    113211.22   -35396.225    6494.5445    6053.4495    138643.57   -35402.259 
  134750    298.54221    212.78447    112007.01   -35623.974    6428.6203    6155.9388    138324.91   -35629.956 
  135000    296.67226   -265.76403    113148.08   -35331.247     6388.354    5866.7433    138887.19   -35336.638 
  135250    300.00366    11.443272    113399.56   -35372.753    6460.0903     6021.868    138698.26   -35376.247 
  135500    299.07532   -154.21069    112944.18   -35562.978       6440.1    5996.9429    138536.78   -35569.737 
  135750    298.44169    -333.4461    113115.57   -35539.025    6426.4558    5932.2617    138631.91   -35547.735 
  136000     294.8331   -346.23936    113647.87   -35518.317    6348.7508    5965.1633    138609.84   -35526.678 
  136250    297.46879   -311.44772    112646.43   -35537.299     6405.506    5915.3281    138647.29   -35542.802 
  136500    298.35933   -15.269238    112282.79   -35524.002    6424.6823    6047.5933    138520.99   -35531.522 
  136750    298.82345    244.76471    112049.78   -35472.026    6434.6765    6110.9138    138513.74   -35479.271 
  137000    300.73657    140.09697    112117.26   -35470.698    6475.8723    6070.0266    138550.32   -35479.233 
  137250    295.37721   -82.047422    112437.28   -35318.664    6360.4673    5925.7997    138850.15   -35329.289 
  137500    298.48015   -178.87991    112787.23   -35440.601     6427.284    5931.9533    138715.23   -35450.238 
  137750     302.9646   -15.390655    111861.84   -35725.055    6523.8493    6099.2605    138278.75   -35731.385 
  138000    298.08575     411.6087    112270.07    -35619.76    6418.7913     6266.456    138207.37   -35630.911 
  138250    299.58413    -292.7299    112982.76    -35552.39    6451.0566    5949.4496    138589.75   -35559.946 
  138500    301.35199   -206.66902    112395.87   -35670.175    6489.1245     6007.655    138421.62    -35676.99 
  138750    302.93854    61.197809    111785.35   -35557.718    6523.2883    6046.2104    138488.63   -35563.754 
  139000    298.98756    101.39612    112300.04     -35829.3    6438.2102    6231.4558    138040.34   -35837.943 
  139250    298.55014   -158.49232    112841.19   -35556.187    6428.7911    6031.7184    138502.75   -35563.572 
  139500    301.21633    301.03792    111811.39   -35666.184    6486.2031    6181.6074    138239.51   -35669.652 
  139750    303.59508    9.7117613    112503.23   -35689.389    6537.4257    6133.3445    138280.24   -35693.902 
  140000     299.0814    123.25412    112257.29   -35499.462     6440.231    6070.8569    138512.87   -35504.245 
  140250    298.74001    75.778076    112302.68   -35413.974    6432.8797    6036.9734    138643.67   -35419.965 
  140500    297.81118    123.23774     112047.5   -35371.289    6412.8788    6019.1487    138697.88   -35377.708 
  140750    291.54299    -218.4512     112473.7   -35283.824    6277.9036     5859.241     138955.7   -35287.548 
  141000    294.56914    219.34247    112037.45   -35519.046    6343.0667    6152.4495    138429.16   -35524.501 
  141250    298.56824    87.867429    112688.37   -35470.849     6429.181    6078.6001    138548.59   -35477.162 
  141500     299.2854   -243.93362    112459.65   -35504.524    6444.6237    5917.5959    138668.41   -35511.098 
  141750    300.61062    23.506341    111837.41   -35523.061    6473.1603    5986.8247     138585.1   -35528.177 
  142000    295.57429   -302.04712    112511.88   -35531.977    6364.7112    5923.2835    138644.36   -35536.749 
  142250    304.80474    73.977996    111834.35   -35586.695    6563.4737    6098.4414    138425.27   -35592.445 
  142500    297.46859     100.0089     111696.9    -35645.19    6405.5018    6070.8269    138388.27   -35649.303 
  142750      298.797     152.7949    112778.08     -35410.2    6434.1068    6123.1017    138565.67   -35416.609 
  143000    304.77103   -14.478486    113551.88   -35418.226    6562.7479    6042.6482    138639.15   -35423.863 
  143250    301.30931   -124.88134    113522.46   -35461.279    6488.2054     6004.926     138633.9   -35466.613 
  143500    303.30499    462.79735    111879.86    -35684.89     6531.179    6281.5577     138129.9   -35689.782 
  143750     301.0081   -159.32482    112430.69   -35514.094    6481.7193    5973.7431    138607.46   -35519.803 
  144000    300.63074    290.85428    112264.25   -35656.208    6473.5934    6217.2695    138231.16   -35662.558 
  144250    299.43654   -175.54206    112990.82   -35547.331    6447.8783    6021.6665    138527.41   -35554.437 
  144500    303.00432    101.88878    112514.43   -35379.879    6524.7047    6045.7822    138673.57   -35384.919 
  144750    298.42878   -574.23005    112780.64   -35715.187    6426.1778    5868.1324    138511.37   -35723.498 
  145000    299.00347    164.56692    111741.14   -35495.026    6438.5529    6081.1705    138512.55   -35500.569 
  145250    303.63685     278.6416    111613.42    -35557.49    6538.3251    6138.5312    138401.41   -35561.925 
  145500    295.43315    29.958928    112506.24   -35251.231     6361.672    5944.7562    138899.26   -35255.701 
  145750    303.97264     258.6688    112732.65   -35568.536    6545.5558    6191.4111    138338.28   -35573.465 
  146000    299.48029     195.9139    112225.72   -35473.594    6448.8205     6103.119    138521.25   -35483.869 
  146250    299.78397   -111.72772    112579.99   -35505.594    6455.3598    5974.6818    138614.58   -35512.579 
  146500    296.53837   -232.46809    112399.55   -35438.555    6385.4709    5881.3979     138772.8   -35444.018 
  146750    298.34382   -185.54767    112497.79   -35574.047    6424.3484     5964.246    138554.51   -35581.285 
  147000    304.26893    72.339354    112415.14    -35494.58    6551.9361     6028.007     138583.4    -35500.05 
  147250     294.9659   -223.31095    111799.85   -35689.079    6351.6104    6000.6742    138408.21   -35694.386 
  147500    301.57463   -165.93447    113364.23   -35488.643    6493.9187    5995.0984    138613.55   -35495.717 
  147750    297.18835    348.79922    112994.29   -35485.934    6399.4673    6190.7797    138418.73   -35493.662 
  148000    295.59571    279.89076    112985.44   -35486.845    6365.1724    6235.2635    138372.57    -35493.42 
  148250    299.64954      125.674    112574.58   -35407.352    6452.4649    6075.1873    138610.94   -35414.401 
  148500    302.89054    151.67601    112560.51   -35514.291    6522.2546    6088.6882     138491.7   -35523.098 
  148750    304.27484   -278.61675    113232.53   -35580.456    6552.0632    5969.5297     138533.6   -35590.534 
  149000    300.55229     72.84044    112878.06    -35441.17    6471.9042    6055.9485    138593.65   -35447.746 
  149250     301.0196   -19.355364     113273.5   -35420.766    6481.9671     6084.514    138581.76   -35431.727 
  149500    299.68986    179.03844    112711.55   -35610.341    6453.3332     6162.336    138320.28   -35618.793 
  149750     303.7049   -204.24808    113078.38   -35683.273    6539.7905    6019.1563    138398.91   -35689.942 
  150000    298.70536    77.530553    112544.99   -35497.728    6432.1335    6068.3093    138530.62   -35506.712 
  150250     303.5927      44.4306    112773.05   -35516.258    6537.3744     6068.596    138508.77   -35524.601 
  150500    297.13857    160.68835    112737.93   -35446.693    6398.3953    6133.1338    138521.92   -35455.581 
  150750    300.42479     121.5106    112180.86   -35521.933    6469.1586     6116.513    138464.97   -35528.213 
  151000    301.17583    315.97675    111819.98   -35579.246    6485.3312    6146.3077    138374.46   -35587.138 
  151250    298.63867   -235.48284    112937.19   -35417.045    6430.6976    5927.2544    138754.02   -35423.761 
  151500    299.43918    126.77863    112560.02    -35484.18    6447.9352    6091.7293     138524.7   -35491.514 
  151750    300.04178   -348.72281    113146.18    -35336.34    6460.9113    5859.8689    138899.19   -35344.986 
  152000     299.1232   -223.23764    113083.18   -35424.483    6441.1311    5951.1151    138715.63   -35433.029 
  152250    296.86691    133.94884    112454.79   -35589.019    6392.5456    6135.8742    138374.58   -35593.372 
  152500    300.59451    416.43484    112137.03   -35624.427    6472.8134    6278.6757    138192.53   -35632.133 
  152750    299.45743   -223.54527    113072.07   -35495.302    6448.3282    5935.9773    138662.13   -35500.803 
  153000    297.77907    56.129861    112759.23   -35507.881    6412.1875    6077.2317    138508.04   -35514.232 
  153250     299.3738    235.45821    112662.62   -35507.919    6446.5274    6180.3688    138402.19   -35513.024 
  153500    301.75093   -53.479479    113233.01   -35354.059    6497.7149    5995.0889    138747.91   -35359.736 
  153750    295.94568    277.13042    112684.05   -35489.846    6372.7084    6201.4098    138408.98   -35495.945 
  154000    301.32436     -349.472    113778.01   -35181.256    6488.5295     5804.107    139115.31   -35185.781 
  154250    299.64352   -86.278072    113253.83   -35479.137    6452.3353    6043.1197    138576.18   -35484.224 
  154500    301.38054     160.2393    112984.09   -35623.852    6489.7392    6189.1193     138278.8   -35629.765 
  154750    301.68413   -305.26799    112588.54   -35429.764    6496.2766    5824.1653    138843.13   -35434.792 
  155000    299.98548   -298.10655    112521.05   -35603.274     6459.699    5891.1287    138608.65   -35608.213 
  155250    301.76852   -69.270455    113064.27   -35402.143    6498.0936    6011.2554     138684.5   -35408.331 
  155500    299.71464    61.888347    112386.75   -35579.989    6453.8669    6100.6499     138410.5   -35583.989 
  155750    301.56819    296.34748    111802.47   -35602.869      6493.78    6178.9748    138313.67   -35606.489 
  156000     297.9762   -124.12309    112647.39   -35425.086    6416.4323     5968.747    138698.94   -35430.726 
  156250    293.29114    205.58332    112772.26   -35479.786    6315.5471    6165.2202     138451.7   -35485.269 
  156500     302.8702     95.68083    113331.72   -35521.808    6521.8167    6138.3684    138435.72   -35527.059 
  156750    303.25311      111.852    112922.22   -35489.805    6530.0619    6100.3645    138503.63   -35496.695 
  157000    292.26492    122.44131    112509.53   -35580.182    6293.4491    6095.9993     138413.3   -35588.792 
  157250    308.24682   -67.674006    113524.06   -35551.717    6637.5933    6062.8697     138482.4   -35559.168 
  157500    298.13668    70.105925    113371.55   -35368.029     6419.888    6070.5921    138660.08   -35374.621 
  157750    296.99632   -90.888976    112373.61   -35574.516    6395.3323    5998.9347    138516.91   -35581.601 
  158000    299.10003   -241.59113    112276.14   -35617.995    6440.6321    5960.6634    138516.05   -35625.866 
  158250     299.7822   -193.83657     112626.3   -35450.747    6455.3216    5924.4695    138720.54   -35461.317 
  158500     299.3509    129.12439    112039.34    -35482.87    6446.0342    6030.2696    138574.99   -35493.746 
  158750    298.49609   0.34034644    112501.69   -35446.039    6427.6274    6040.6378    138611.65   -35450.727 
  159000    304.56634   -67.316164    113041.32   -35431.225    6558.3403    5991.2626    138672.18   -35440.706 
  159250    301.62337    95.907054    112729.71   -35317.924    6494.9682    6014.1518    138747.58   -35322.622 
  159500    297.45853   -195.28082    113351.39    -35417.73    6405.2851    5980.0385     138700.8   -35423.428 
  159750    293.04517    75.988422    112486.11   -35509.806    6310.2506    6074.2525    138525.82   -35515.529 
  160000    296.76967    175.41452    112409.12   -35368.382    6390.4516    6089.4668    138640.15   -35375.759 
  160250    307.11193   -153.46128    112641.14   -35533.699    6613.1553    5974.7876     138587.9   -35541.531 
  160500    298.42627    365.60751    112194.33   -35509.542    6426.1238    6198.0137    138382.81   -35515.401 
  160750    300.39165   -185.34271    112693.69   -35484.171    6468.4452    5920.4197    138696.86   -35491.524 
  161000    305.05578    231.84304    112667.35   -35458.404    6568.8794    6135.6126    138485.73   -35464.603 
  161250    297.34026    318.81097    112263.65   -35604.829    6402.7383    6245.3268    138243.14   -35612.051 
  161500    296.61819   -44.810797    113307.69   -35526.659    6387.1897    6092.6649    138465.52   -35536.446 
  161750    297.94992   -408.50316    113694.63   -35510.227    6415.8664    5926.4252     138667.1   -35516.541 
  162000    302.04509   -56.508445    112685.23   -35606.344    6504.0492    6038.1103    138459.56   -35612.017 
  162250    300.76647    28.232246    112642.19    -35523.71    6476.5163    6082.5749    138484.09   -35531.547 
  162500    296.32467   -122.81767    112610.39   -35570.697    6380.8693    6033.3732    138495.53   -35576.322 
  162750    300.04702     57.68168    112146.05   -35798.049     6461.024     6163.692    138136.17   -35803.196 
  163000    304.58283   -294.09203    112510.72   -35519.637    6558.6953    5902.6237    138675.48   -35526.505 
  163250    298.18387    137.55398    111842.53   -35571.222    6420.9042    6089.5586    138430.89   -35577.988 
  163500    302.04785   -55.527721    112173.92   -35453.472    6504.1087    5978.2987    138661.87   -35463.714 
  163750    304.24865   -245.89907    112354.62    -35422.85    6551.4994    5874.9385    138802.77   -35428.075 
  164000    299.71864    143.14907    111582.56   -35497.728    6453.9528    6014.8729    138585.48   -35502.743 
  164250    296.94118   -37.459871    112372.52   -35516.938    6394.1448    6024.2422    138554.66   -35523.909 
  164500    304.33674   -285.36225     113223.3   -35479.706    6553.3962    5939.4448    138678.71   -35486.675 
  164750    302.63872    -134.3652    112958.88   -35684.017    6516.8321    6063.9203    138345.25   -35690.609 
  165000    300.26117   -206.39449    113293.84   -35508.762    6465.6353    5947.3565    138636.91   -35516.598 
  165250     299.1117    314.25479    112161.24   -35502.346    6440.8835     6179.826    138424.19   -35507.812 
  165251    299.76109    302.66158    112164.58   -35514.098    6454.8671     6177.772    138413.51    -35519.95 
Loop time of 10625.9 on 1 procs (1 MPI x 1 OpenMP) for 100000 steps with 10825 atoms

Pair  time (%) = 7814.13 (73.5385)
Bond  time (%) = 0.361303 (0.00340021)
Kspce time (%) = 775.079 (7.29424)
Neigh time (%) = 1291.99 (12.1589)
Comm  time (%) = 29.722 (0.279713)
Outpt time (%) = 0.4356 (0.00409942)
Other time (%) = 714.188 (6.7212)

FFT time (% of Kspce) = 115.396 (14.8882)
FFT Gflps 3d (1d only) = 2.38969 4.80579

Nlocal:    10825 ave 10825 max 10825 min
Histogram: 1 0 0 0 0 0 0 0 0 0
Nghost:    26415 ave 26415 max 26415 min
Histogram: 1 0 0 0 0 0 0 0 0 0
Neighs:    3.59354e+06 ave 3.59354e+06 max 3.59354e+06 min
Histogram: 1 0 0 0 0 0 0 0 0 0

Total # of neighbors = 3593542
Ave neighs/atom = 331.967
Ave special neighs/atom = 2.00813
Neighbor list builds = 10395
Dangerous builds = 0
write_restart   confout-1.data
PPPM initialization ...
  G vector (1/distance) = 0.265195
  grid = 36 20 20
  stencil order = 5
  estimated absolute RMS force accuracy = 0.0364465
  estimated relative force accuracy = 0.000109757
  using double precision FFTs
  3d grid and FFT values/proc = 29889 14400
