ITEM: TIMESTEP
500
ITEM: NUMBER OF ATOMS
9043
ITEM: BOX BOUNDS pp pp pp
0.0 86.0
0.0 38.0
0.0 38.0
ITEM: ATOMS id mol type x y z ix iy iz 
1 1 1 3.33473 0.602637 3.68649 0 0 0 
2 1 2 3.26409 1.28553 4.41359 0 0 0 
3 1 2 4.2966 0.466781 3.44913 0 0 0 
4 2 1 3.12538 2.3585 5.64907 0 0 0 
5 2 2 2.50428 1.98656 6.33892 0 0 0 
6 2 2 3.03139 3.35358 5.61779 0 0 0 
7 3 1 1.87998 2.65026 8.43489 0 0 0 
8 3 2 1.45759 2.86605 9.31523 0 0 0 
9 3 2 2.26759 3.4824 8.03828 0 0 0 
10 4 1 2.1738 3.81991 10.9357 0 0 0 
11 4 2 1.96546 4.4735 11.6633 0 0 0 
12 4 2 3.01837 3.33248 11.1573 0 0 0 
13 5 1 3.6136 2.84518 15.263 0 0 0 
14 5 2 3.15504 2.08271 15.7195 0 0 0 
15 5 2 3.27583 3.70911 15.6366 0 0 0 
16 6 1 2.94873 2.8274 20.6507 0 0 0 
17 6 2 2.9363 3.81233 20.8232 0 0 0 
18 6 2 2.29721 2.60796 19.9245 0 0 0 
19 7 1 4.45504 1.99563 23.1453 0 0 0 
20 7 2 4.08621 2.6619 23.7934 0 0 0 
21 7 2 4.00262 2.10577 22.2603 0 0 0 
22 8 1 1.74949 2.48809 27.0128 0 0 0 
23 8 2 2.38822 3.25667 26.9765 0 0 0 
24 8 2 1.74887 2.01347 26.1326 0 0 0 
25 9 1 1.90079 2.21194 29.8621 0 0 0 
26 9 2 1.00415 1.77402 29.7969 0 0 0 
27 9 2 2.07506 2.74009 29.0311 0 0 0 
28 10 1 3.31234 2.82812 32.0364 0 0 0 
29 10 2 3.19316 3.80091 32.2351 0 0 0 
30 10 2 2.93915 2.6246 31.1313 0 0 0 
31 11 1 2.55546 0.354435 33.2859 0 0 0 
32 11 2 1.74149 0.721411 33.7362 0 0 0 
33 11 2 3.08968 1.10599 32.8989 0 0 0 
34 12 1 2.7207 7.51165 4.68439 0 0 0 
35 12 2 3.70032 7.69677 4.60639 0 0 0 
36 12 2 2.21308 8.15664 4.11316 0 0 0 
37 13 1 3.2222 5.1589 6.48033 0 0 0 
38 13 2 2.97156 5.55946 7.36165 0 0 0 
39 13 2 2.84175 5.71481 5.74127 0 0 0 
40 14 1 2.25353 5.73104 9.16234 0 0 0 
41 14 2 2.13358 4.99977 9.8338 0 0 0 
42 14 2 2.46634 6.58609 9.63518 0 0 0 
43 15 1 2.08979 6.03894 12.6544 0 0 0 
44 15 2 1.7774 6.35662 13.5496 0 0 0 
45 15 2 2.34085 6.82571 12.0905 0 0 0 
46 16 1 2.63552 5.16498 16.3418 0 0 0 
47 16 2 2.66646 5.4543 17.2986 0 0 0 
48 16 2 2.5039 5.96457 15.7559 0 0 0 
49 17 1 2.81253 5.58288 20.6126 0 0 0 
50 17 2 2.61756 6.32827 19.9751 0 0 0 
51 17 2 3.66336 5.77613 21.1012 0 0 0 
52 18 1 3.5826 4.85802 23.5812 0 0 0 
53 18 2 2.73403 5.03544 23.0828 0 0 0 
54 18 2 4.36402 5.03923 22.9841 0 0 0 
55 19 1 2.64432 5.3602 26.0526 0 0 0 
56 19 2 2.42271 6.33347 25.9925 0 0 0 
57 19 2 3.01897 5.04906 25.1792 0 0 0 
58 20 1 2.52348 5.9388 29.4234 0 0 0 
59 20 2 2.05975 6.26117 28.5981 0 0 0 
60 20 2 3.21887 5.26507 29.1733 0 0 0 
61 21 1 3.10217 5.65709 32.1567 0 0 0 
62 21 2 2.65575 6.25663 32.821 0 0 0 
63 21 2 2.77908 5.87969 31.2369 0 0 0 
64 22 1 2.04367 7.52865 33.8015 0 0 0 
65 22 2 1.26016 7.33352 34.3915 0 0 0 
66 22 2 2.5099 8.35097 34.1277 0 0 0 
67 23 1 3.25434 10.1022 2.64637 0 0 0 
68 23 2 2.91538 10.509 1.79811 0 0 0 
69 23 2 3.86238 9.33833 2.42996 0 0 0 
70 24 1 2.62545 10.5866 6.33039 0 0 0 
71 24 2 2.29586 11.5221 6.45749 0 0 0 
72 24 2 2.12844 10.1577 5.57605 0 0 0 
73 25 1 3.13855 10.0783 8.90877 0 0 0 
74 25 2 2.72562 10.8924 9.31724 0 0 0 
75 25 2 2.91035 10.0413 7.93586 0 0 0 
76 26 1 2.92939 7.8858 10.7809 0 0 0 
77 26 2 3.65372 8.08733 11.4402 0 0 0 
78 26 2 2.67091 8.7252 10.3028 0 0 0 
79 27 1 2.42566 7.8041 15.2633 0 0 0 
80 27 2 1.99082 8.69777 15.1525 0 0 0 
81 27 2 3.27757 7.78082 14.7401 0 0 0 
82 28 1 2.25432 7.46263 18.4099 0 0 0 
83 28 2 2.07539 8.30212 18.923 0 0 0 
84 28 2 1.73518 7.4772 17.5553 0 0 0 
85 29 1 3.55 8.1974 22.4793 0 0 0 
86 29 2 4.39065 7.66886 22.5974 0 0 0 
87 29 2 3.27726 8.5904 23.3575 0 0 0 
88 30 1 2.9558 8.18247 26.8217 0 0 0 
89 30 2 2.66636 8.82 27.5357 0 0 0 
90 30 2 3.9516 8.20964 26.7343 0 0 0 
91 31 1 3.30001 9.99651 28.8471 0 0 0 
92 31 2 2.99676 9.89474 29.7946 0 0 0 
93 31 2 3.13734 10.9355 28.5441 0 0 0 
94 32 1 2.63115 9.89508 31.5707 0 0 0 
95 32 2 2.19139 9.19555 32.1339 0 0 0 
96 32 2 2.41504 10.8009 31.9351 0 0 0 
97 33 1 3.19046 10.1059 34.6212 0 0 0 
98 33 2 4.16276 9.88533 34.6984 0 0 0 
99 33 2 3.0722 11.0989 34.6307 0 0 0 
100 34 1 1.88585 12.591 4.2528 0 0 0 
101 34 2 1.56949 13.3559 3.69179 0 0 0 
102 34 2 2.40042 11.9502 3.68303 0 0 0 
103 35 1 1.82764 13.5108 6.7006 0 0 0 
104 35 2 1.75297 14.5077 6.72557 0 0 0 
105 35 2 1.6659 13.1877 5.76816 0 0 0 
106 36 1 2.21819 12.8114 9.36748 0 0 0 
107 36 2 2.19241 13.4999 10.0923 0 0 0 
108 36 2 1.90407 13.2185 8.5098 0 0 0 
109 37 1 3.40355 11.7373 13.5382 0 0 0 
110 37 2 2.8938 12.4154 13.0087 0 0 0 
111 37 2 4.33026 11.6559 13.1713 0 0 0 
112 38 1 1.80297 10.6182 15.3645 0 0 0 
113 38 2 1.30746 11.2457 15.9651 0 0 0 
114 38 2 2.47261 11.1304 14.8267 0 0 0 
115 39 1 2.35379 9.59546 20.5027 0 0 0 
116 39 2 2.26065 10.5809 20.6448 0 0 0 
117 39 2 2.36974 9.13102 21.3882 0 0 0 
118 40 1 2.88603 12.0372 21.4882 0 0 0 
119 40 2 2.9254 11.7496 22.4451 0 0 0 
120 40 2 3.28285 12.9506 21.398 0 0 0 
121 41 1 4.13852 11.9984 24.1664 0 0 0 
122 41 2 4.51191 11.7042 25.0462 0 0 0 
123 41 2 4.77154 12.6401 23.7335 0 0 0 
124 42 1 2.74912 12.5581 28.4745 0 0 0 
125 42 2 2.41301 12.8625 29.3658 0 0 0 
126 42 2 2.63372 13.2929 27.8061 0 0 0 
127 43 1 2.12063 12.2776 32.6826 0 0 0 
128 43 2 2.12183 12.7621 33.5574 0 0 0 
129 43 2 1.35171 12.5943 32.1272 0 0 0 
130 44 1 3.34111 13.2869 35.0491 0 0 0 
131 44 2 3.99666 13.0454 35.7646 0 0 0 
132 44 2 2.87249 14.1343 35.2986 0 0 0 
133 45 1 2.72509 14.9896 3.066 0 0 0 
134 45 2 2.76251 15.9859 2.98862 0 0 0 
135 45 2 3.48538 14.5869 2.5563 0 0 0 
136 46 1 2.18209 16.3334 5.88981 0 0 0 
137 46 2 2.35455 17.3184 5.89046 0 0 0 
138 46 2 2.18445 15.9952 4.94874 0 0 0 
139 47 1 2.84547 16.0315 8.48652 0 0 0 
140 47 2 2.98279 16.9624 8.82525 0 0 0 
141 47 2 2.47489 16.0659 7.55836 0 0 0 
142 48 1 2.26895 15.0561 10.8872 0 0 0 
143 48 2 2.44573 15.8394 11.4832 0 0 0 
144 48 2 2.5346 15.2836 9.95035 0 0 0 
145 49 1 4.87954 14.6363 17.0681 0 0 0 
146 49 2 5.11877 15.5876 17.2627 0 0 0 
147 49 2 5.02021 14.4495 16.0958 0 0 0 
148 50 1 5.90604 12.4996 18.3756 0 0 0 
149 50 2 5.2779 12.1034 19.0453 0 0 0 
150 50 2 5.48756 13.3095 17.9646 0 0 0 
151 51 1 3.9446 14.4951 21.822 0 0 0 
152 51 2 3.8721 15.2605 21.1826 0 0 0 
153 51 2 3.79282 14.824 22.7541 0 0 0 
154 52 1 2.70414 14.5422 26.4773 0 0 0 
155 52 2 2.22915 15.4218 26.4518 0 0 0 
156 52 2 2.63923 14.1022 25.5816 0 0 0 
157 53 1 2.87045 15.3612 30.0664 0 0 0 
158 53 2 3.00604 15.051 31.0074 0 0 0 
159 53 2 3.75015 15.3787 29.5912 0 0 0 
160 54 1 1.89017 15.5607 33.108 0 0 0 
161 54 2 2.02498 15.748 34.081 0 0 0 
162 54 2 1.82805 16.4244 32.6078 0 0 0 
163 55 1 2.85896 16.0031 35.6715 0 0 0 
164 55 2 3.7284 15.9335 36.1606 0 0 0 
165 55 2 2.6572 16.9647 35.4856 0 0 0 
166 56 1 2.88677 17.974 2.90358 0 0 0 
167 56 2 2.88682 18.5979 3.68503 0 0 0 
168 56 2 3.3843 18.3918 2.14339 0 0 0 
169 57 1 2.84217 19.0728 6.11622 0 0 0 
170 57 2 2.11711 19.5852 6.57635 0 0 0 
171 57 2 3.39795 19.6994 5.56987 0 0 0 
172 58 1 3.63816 18.7856 8.89296 0 0 0 
173 58 2 3.61141 19.6933 9.31169 0 0 0 
174 58 2 3.62504 18.8773 7.89727 0 0 0 
175 59 1 3.45982 17.5916 11.7398 0 0 0 
176 59 2 3.55656 18.0382 10.8503 0 0 0 
177 59 2 4.25722 17.8002 12.306 0 0 0 
178 60 1 5.76895 17.3494 15.2528 0 0 0 
179 60 2 6.20535 18.1982 14.9545 0 0 0 
180 60 2 5.56185 16.7829 14.4552 0 0 0 
181 61 1 5.17328 18.6502 17.7647 0 0 0 
182 61 2 4.35156 19.1973 17.9244 0 0 0 
183 61 2 5.18297 18.3322 16.8167 0 0 0 
184 62 1 3.38486 16.3479 24.3083 0 0 0 
185 62 2 3.03305 16.833 25.1089 0 0 0 
186 62 2 4.15712 16.8541 23.9245 0 0 0 
187 63 1 2.35432 17.2383 26.727 0 0 0 
188 63 2 2.40771 17.2012 27.7248 0 0 0 
189 63 2 2.15984 18.1757 26.4382 0 0 0 
190 64 1 3.38038 18.4102 29.5414 0 0 0 
191 64 2 2.95429 17.5331 29.7632 0 0 0 
192 64 2 3.23297 19.0521 30.2939 0 0 0 
193 65 1 2.72914 18.3063 32.4698 0 0 0 
194 65 2 2.83805 18.5755 33.4267 0 0 0 
195 65 2 2.56813 19.1198 31.911 0 0 0 
196 66 1 3.25508 18.659 35.3396 0 0 0 
197 66 2 4.23229 18.5705 35.5325 0 0 0 
198 66 2 2.86892 19.3893 35.9032 0 0 0 
199 67 1 3.6484 21.1927 4.41699 0 0 0 
200 67 2 3.19443 22.0727 4.55688 0 0 0 
201 67 2 4.50447 21.3346 3.91998 0 0 0 
202 68 1 1.65087 21.4876 7.36228 0 0 0 
203 68 2 1.77469 21.8755 8.27565 0 0 0 
204 68 2 1.61852 22.2257 6.68834 0 0 0 
205 69 1 2.64451 23.7933 8.47119 0 0 0 
206 69 2 2.50949 24.1687 9.38817 0 0 0 
207 69 2 3.12167 24.464 7.90337 0 0 0 
208 70 1 2.73374 24.959 10.9995 0 0 0 
209 70 2 2.52087 24.1161 11.4937 0 0 0 
210 70 2 2.08765 25.6741 11.2664 0 0 0 
211 71 1 4.45932 24.0986 13.3595 0 0 0 
212 71 2 4.62817 23.5666 14.1893 0 0 0 
213 71 2 5.07763 24.8841 13.3356 0 0 0 
214 72 1 4.79346 23.6402 16.4849 0 0 0 
215 72 2 3.81263 23.7139 16.6652 0 0 0 
216 72 2 5.21809 23.0625 17.182 0 0 0 
217 73 1 3.70677 23.3713 22.83 0 0 0 
218 73 2 2.85146 22.9154 23.0762 0 0 0 
219 73 2 3.51235 24.1343 22.2135 0 0 0 
220 74 1 3.72234 23.4895 25.9504 0 0 0 
221 74 2 3.30478 24.3979 25.9285 0 0 0 
222 74 2 4.64821 23.5392 25.5758 0 0 0 
223 75 1 2.70478 23.2431 28.9653 0 0 0 
224 75 2 2.25832 24.0256 29.3994 0 0 0 
225 75 2 2.78591 23.4087 27.9824 0 0 0 
226 76 1 2.66001 20.7616 31.0408 0 0 0 
227 76 2 3.61781 21.0008 31.2003 0 0 0 
228 76 2 2.29789 21.3172 30.2924 0 0 0 
229 77 1 3.27758 22.4857 34.747 0 0 0 
230 77 2 3.68369 23.3177 34.3691 0 0 0 
231 77 2 2.40013 22.3106 34.3005 0 0 0 
232 78 1 2.44777 24.0342 4.57686 0 0 0 
233 78 2 2.44396 24.7404 5.28495 0 0 0 
234 78 2 2.51045 24.4652 3.67669 0 0 0 
235 79 1 2.97182 26.163 6.14708 0 0 0 
236 79 2 2.52797 26.4631 6.99143 0 0 0 
237 79 2 3.40793 26.9458 5.70331 0 0 0 
238 80 1 2.16098 27.0494 8.62799 0 0 0 
239 80 2 1.86915 27.9768 8.86218 0 0 0 
240 80 2 2.48957 26.5856 9.45075 0 0 0 
241 81 1 1.48332 27.059 12.411 0 0 0 
242 81 2 0.500551 27.1659 12.5618 0 0 0 
243 81 2 1.89871 27.9579 12.271 0 0 0 
244 82 1 4.03859 27.2393 15.3696 0 0 0 
245 82 2 3.43378 26.5226 15.0226 0 0 0 
246 82 2 3.57444 28.1233 15.3134 0 0 0 
247 83 1 2.40464 26.0831 21.9517 0 0 0 
248 83 2 3.06576 26.6293 21.4373 0 0 0 
249 83 2 1.55384 26.5986 22.0536 0 0 0 
250 84 1 2.22034 27.5109 24.2556 0 0 0 
251 84 2 2.2048 28.4685 23.968 0 0 0 
252 84 2 2.57486 26.945 23.5113 0 0 0 
253 85 1 2.75296 25.9672 26.4532 0 0 0 
254 85 2 3.50847 26.498 26.8372 0 0 0 
255 85 2 2.26693 26.5205 25.7767 0 0 0 
256 86 1 2.3912 26.2155 29.5061 0 0 0 
257 86 2 2.08161 26.4643 28.5883 0 0 0 
258 86 2 3.37085 26.3986 29.5884 0 0 0 
259 87 1 2.78873 26.1624 32.0799 0 0 0 
260 87 2 2.5525 27.0267 32.5239 0 0 0 
261 87 2 2.49829 26.1888 31.1233 0 0 0 
262 88 1 4.3935 25.0754 33.9998 0 0 0 
263 88 2 4.65099 25.7051 34.7327 0 0 0 
264 88 2 3.77874 25.5396 33.3622 0 0 0 
265 89 1 5.16597 26.6198 0.522501 0 0 0 
266 89 2 4.37464 26.3511 37.9254 0 0 -1 
267 89 2 5.64848 27.3685 0.0679327 0 0 0 
268 90 1 4.22417 27.8666 3.47223 0 0 0 
269 90 2 4.63931 28.6204 3.98158 0 0 0 
270 90 2 4.07532 28.1471 2.524 0 0 0 
271 91 1 2.06282 29.4983 9.4844 0 0 0 
272 91 2 2.4874 29.598 10.3843 0 0 0 
273 91 2 1.93963 30.401 9.07209 0 0 0 
274 92 1 2.9821 29.4989 12.3335 0 0 0 
275 92 2 3.90259 29.1767 12.1124 0 0 0 
276 92 2 2.85652 30.4228 11.9722 0 0 0 
277 93 1 2.64206 29.3732 15.2519 0 0 0 
278 93 2 1.65066 29.3313 15.3759 0 0 0 
279 93 2 2.85278 29.4611 14.2783 0 0 0 
280 94 1 3.07311 30.4169 19.2447 0 0 0 
281 94 2 3.78181 31.1117 19.1221 0 0 0 
282 94 2 3.46309 29.5107 19.0818 0 0 0 
283 95 1 2.04699 29.2327 21.6341 0 0 0 
284 95 2 1.55527 29.8806 22.2158 0 0 0 
285 95 2 2.44348 29.7185 20.8551 0 0 0 
286 96 1 3.37057 28.9825 27.8163 0 0 0 
287 96 2 3.10454 29.6287 27.101 0 0 0 
288 96 2 4.36264 29.0106 27.9387 0 0 0 
289 97 1 2.3621 29.8178 30.2897 0 0 0 
290 97 2 2.33604 30.7067 29.8324 0 0 0 
291 97 2 2.73893 29.133 29.6659 0 0 0 
292 98 1 2.6015 28.7284 32.7275 0 0 0 
293 98 2 3.58426 28.9096 32.6905 0 0 0 
294 98 2 2.16904 29.0635 31.8905 0 0 0 
295 99 1 4.40581 27.6934 35.5563 0 0 0 
296 99 2 5.21249 28.2132 35.2752 0 0 0 
297 99 2 3.62364 27.9619 34.9941 0 0 0 
298 100 1 3.67549 32.1135 3.20435 0 0 0 
299 100 2 3.51142 32.9423 2.66941 0 0 0 
300 100 2 4.45468 31.6179 2.82063 0 0 0 
301 101 1 2.24241 33.3722 5.79355 0 0 0 
302 101 2 1.66185 34.1784 5.67992 0 0 0 
303 101 2 2.36898 32.9251 4.90805 0 0 0 
304 102 1 2.09111 32.1083 8.34108 0 0 0 
305 102 2 2.44281 32.9642 8.72024 0 0 0 
306 102 2 1.80019 32.2571 7.39598 0 0 0 
307 103 1 2.81716 32.1869 11.4165 0 0 0 
308 103 2 3.3605 33.0258 11.3836 0 0 0 
309 103 2 2.68954 31.8358 10.4889 0 0 0 
310 104 1 2.33464 32.4763 14.2419 0 0 0 
311 104 2 2.40066 33.4579 14.4215 0 0 0 
312 104 2 2.49027 32.3042 13.2692 0 0 0 
313 105 1 3.36241 32.3886 16.8565 0 0 0 
314 105 2 4.18734 31.8713 16.6286 0 0 0 
315 105 2 2.70255 32.3098 16.1093 0 0 0 
316 106 1 1.85406 30.8455 23.848 0 0 0 
317 106 2 1.62997 30.94 24.8179 0 0 0 
318 106 2 2.3304 31.6669 23.5343 0 0 0 
319 107 1 2.48607 31.9128 26.4116 0 0 0 
320 107 2 2.59959 31.9271 27.4051 0 0 0 
321 107 2 2.65092 32.8281 26.0441 0 0 0 
322 108 1 2.8351 32.5149 29.5139 0 0 0 
323 108 2 3.12395 32.4183 30.4664 0 0 0 
324 108 2 2.5195 33.4503 29.3546 0 0 0 
325 109 1 3.61783 32.0287 31.9993 0 0 0 
326 109 2 3.40183 31.0564 31.9099 0 0 0 
327 109 2 3.29947 32.3605 32.8873 0 0 0 
328 110 1 3.8091 33.1222 34.6298 0 0 0 
329 110 2 4.33587 32.9084 35.4525 0 0 0 
330 110 2 3.47223 34.0621 34.6845 0 0 0 
331 111 1 3.38837 35.9467 4.31647 0 0 0 
332 111 2 3.0003 36.849 4.1285 0 0 0 
333 111 2 3.92753 35.6454 3.53003 0 0 0 
334 112 1 1.78478 36.158 7.15914 0 0 0 
335 112 2 2.04865 36.9804 7.66314 0 0 0 
336 112 2 2.29728 36.1138 6.30159 0 0 0 
337 113 1 2.5607 34.6154 9.49404 0 0 0 
338 113 2 3.42577 35.1146 9.54293 0 0 0 
339 113 2 1.99788 34.9949 8.75974 0 0 0 
340 114 1 4.07557 34.7878 11.8516 0 0 0 
341 114 2 4.37645 35.741 11.8791 0 0 0 
342 114 2 3.17919 34.7337 11.4116 0 0 0 
343 115 1 3.18017 35.0512 14.5581 0 0 0 
344 115 2 3.50693 35.9775 14.7455 0 0 0 
345 115 2 3.71297 34.6546 13.8105 0 0 0 
346 116 1 4.79832 35.1889 17.1811 0 0 0 
347 116 2 4.99362 35.7091 16.3497 0 0 0 
348 116 2 4.03127 34.5694 17.0142 0 0 0 
349 117 1 3.58793 32.8153 23.2292 0 0 0 
350 117 2 3.63054 33.688 23.7156 0 0 0 
351 117 2 4.24409 32.8219 22.4746 0 0 0 
352 118 1 3.48872 34.6557 26.2089 0 0 0 
353 118 2 2.87878 34.6514 27.0013 0 0 0 
354 118 2 4.24349 35.2909 26.3728 0 0 0 
355 119 1 2.19127 35.2032 29.0658 0 0 0 
356 119 2 2.00511 35.2386 30.0476 0 0 0 
357 119 2 2.48794 36.1044 28.75 0 0 0 
358 120 1 1.96161 35.748 31.5644 0 0 0 
359 120 2 2.19718 34.9455 32.1126 0 0 0 
360 120 2 2.04184 36.571 32.1268 0 0 0 
361 121 1 3.17345 35.74 34.3728 0 0 0 
362 121 2 4.15331 35.7658 34.5708 0 0 0 
363 121 2 2.84917 36.6648 34.1738 0 0 0 
364 122 1 6.15392 37.8978 3.7011 0 -1 0 
365 122 2 5.97325 0.526322 4.49494 0 0 0 
366 122 2 7.14124 37.8207 3.56235 0 -1 0 
367 123 1 5.66517 1.39465 6.04489 0 0 0 
368 123 2 6.36932 1.73669 6.66713 0 0 0 
369 123 2 4.8347 1.94206 6.1481 0 0 0 
370 124 1 3.42905 0.563116 9.48421 0 0 0 
371 124 2 3.46273 0.826629 10.4483 0 0 0 
372 124 2 2.86688 1.21798 8.97912 0 0 0 
373 125 1 3.99191 1.56154 12.7031 0 0 0 
374 125 2 3.84843 1.70018 13.683 0 0 0 
375 125 2 4.20488 2.43747 12.2703 0 0 0 
376 126 1 7.16174 1.14907 14.9126 0 0 0 
377 126 2 7.72669 1.14534 14.0875 0 0 0 
378 126 2 6.616 1.9866 14.9391 0 0 0 
379 127 1 8.11568 2.62775 20.5528 0 0 0 
380 127 2 7.4346 3.18476 20.0775 0 0 0 
381 127 2 8.87377 2.42692 19.9323 0 0 0 
382 128 1 6.62356 0.643508 22.2593 0 0 0 
383 128 2 5.85686 1.21712 22.5477 0 0 0 
384 128 2 7.14551 1.11681 21.5497 0 0 0 
385 129 1 5.15721 1.36155 27.0467 0 0 0 
386 129 2 4.87946 2.18834 27.5359 0 0 0 
387 129 2 5.97278 1.55505 26.5014 0 0 0 
388 130 1 3.24598 37.8606 28.2621 0 -1 0 
389 130 2 2.42 0.45008 28.4185 0 0 0 
390 130 2 3.95479 0.489586 27.8622 0 0 0 
391 131 1 5.4196 1.36128 32.8466 0 0 0 
392 131 2 4.80572 2.10201 32.5737 0 0 0 
393 131 2 6.36649 1.63229 32.6735 0 0 0 
394 132 1 6.89317 0.17033 35.1848 0 0 0 
395 132 2 7.85616 0.426084 35.0997 0 0 0 
396 132 2 6.33808 0.762995 34.6012 0 0 0 
397 133 1 6.4919 6.31151 37.5428 0 0 -1 
398 133 2 7.28989 6.91288 37.5823 0 0 -1 
399 133 2 6.57245 5.70227 36.7539 0 0 -1 
400 134 1 5.71018 6.54289 6.37412 0 0 0 
401 134 2 5.56458 7.462 6.00803 0 0 0 
402 134 2 4.85118 6.03185 6.34318 0 0 0 
403 135 1 5.86275 5.81589 9.90702 0 0 0 
404 135 2 5.97796 6.79979 10.0436 0 0 0 
405 135 2 4.99499 5.64343 9.44094 0 0 0 
406 136 1 5.28738 3.77622 11.517 0 0 0 
407 136 2 5.57826 3.77897 12.4737 0 0 0 
408 136 2 5.62107 4.60336 11.0648 0 0 0 
409 137 1 6.02659 3.67471 14.471 0 0 0 
410 137 2 6.27056 4.54097 14.9069 0 0 0 
411 137 2 5.10851 3.40317 14.7598 0 0 0 
412 138 1 7.14184 4.78306 19.5259 0 0 0 
413 138 2 6.68014 5.20234 18.7442 0 0 0 
414 138 2 7.74296 5.45541 19.9579 0 0 0 
415 139 1 5.34625 5.60507 21.7199 0 0 0 
416 139 2 5.92743 6.28196 22.1716 0 0 0 
417 139 2 5.80527 5.26675 20.8984 0 0 0 
418 140 1 4.19812 4.09856 27.9087 0 0 0 
419 140 2 5.12629 4.46675 27.9629 0 0 0 
420 140 2 3.65491 4.65519 27.2802 0 0 0 
421 141 1 6.5159 6.51876 30.3137 0 0 0 
422 141 2 6.20227 6.42986 31.259 0 0 0 
423 141 2 6.1326 7.35054 29.9121 0 0 0 
424 142 1 5.80864 5.95936 33.1172 0 0 0 
425 142 2 4.91532 5.61274 32.8311 0 0 0 
426 142 2 5.74328 6.94085 33.2972 0 0 0 
427 143 1 6.82588 4.73529 35.3947 0 0 0 
428 143 2 6.68748 3.75229 35.5153 0 0 0 
429 143 2 6.17587 5.08297 34.7189 0 0 0 
430 144 1 5.07453 8.43316 1.51746 0 0 0 
431 144 2 5.9731 8.50162 1.95092 0 0 0 
432 144 2 5.09918 7.72807 0.808772 0 0 0 
433 145 1 5.02714 8.95654 5.30423 0 0 0 
434 145 2 4.26409 9.41352 5.76132 0 0 0 
435 145 2 5.58477 9.63567 4.82693 0 0 0 
436 146 1 5.60305 8.5277 9.76947 0 0 0 
437 146 2 4.88409 9.1751 9.51655 0 0 0 
438 146 2 6.49757 8.93054 9.57569 0 0 0 
439 147 1 4.7878 8.18148 13.7232 0 0 0 
440 147 2 4.81565 9.18024 13.682 0 0 0 
441 147 2 5.35876 7.80178 12.9953 0 0 0 
442 148 1 6.49612 6.04655 15.6035 0 0 0 
443 148 2 6.10664 6.35769 16.4704 0 0 0 
444 148 2 6.31657 6.72782 14.8939 0 0 0 
445 149 1 5.59687 7.18265 18.0027 0 0 0 
446 149 2 4.61198 7.32396 17.9026 0 0 0 
447 149 2 6.01917 8.01751 18.3558 0 0 0 
448 150 1 6.26385 7.51226 23.6099 0 0 0 
449 150 2 6.41327 7.45867 24.5972 0 0 0 
450 150 2 6.62738 8.37734 23.2643 0 0 0 
451 151 1 5.53704 8.71013 26.6704 0 0 0 
452 151 2 5.74279 8.63805 27.6463 0 0 0 
453 151 2 5.43479 9.67326 26.4215 0 0 0 
454 152 1 5.71854 9.00561 29.5774 0 0 0 
455 152 2 4.79333 9.30459 29.3438 0 0 0 
456 152 2 6.17706 9.72133 30.1042 0 0 0 
457 153 1 5.72227 8.78204 32.8931 0 0 0 
458 153 2 5.95707 9.09315 33.814 0 0 0 
459 153 2 4.90274 9.26087 32.5783 0 0 0 
460 154 1 5.90942 9.94748 35.5785 0 0 0 
461 154 2 6.85571 9.75393 35.8375 0 0 0 
462 154 2 5.57663 10.7355 36.0964 0 0 0 
463 155 1 5.20563 13.7211 2.11516 0 0 0 
464 155 2 5.60179 14.6387 2.14642 0 0 0 
465 155 2 5.93711 13.0406 2.15845 0 0 0 
466 156 1 4.66397 13.0696 5.19952 0 0 0 
467 156 2 3.68044 13.2047 5.31962 0 0 0 
468 156 2 4.86544 12.9312 4.22985 0 0 0 
469 157 1 5.0897 12.0931 7.68386 0 0 0 
470 157 2 4.87194 12.4642 6.78117 0 0 0 
471 157 2 4.27871 11.6509 8.06692 0 0 0 
472 158 1 6.1309 10.6811 13.0887 0 0 0 
473 158 2 6.21818 10.9764 14.0401 0 0 0 
474 158 2 6.7323 11.2337 12.5117 0 0 0 
475 159 1 6.79033 11.5143 15.8072 0 0 0 
476 159 2 6.73633 12.5114 15.7535 0 0 0 
477 159 2 6.67227 11.2247 16.757 0 0 0 
478 160 1 6.62509 9.43321 19.0249 0 0 0 
479 160 2 5.99452 9.94083 19.612 0 0 0 
480 160 2 7.31192 8.97615 19.59 0 0 0 
481 161 1 5.96266 11.6137 21.4909 0 0 0 
482 161 2 4.9793 11.6403 21.3112 0 0 0 
483 161 2 6.37028 12.4931 21.245 0 0 0 
484 162 1 5.22454 11.4317 26.5121 0 0 0 
485 162 2 5.01046 12.0087 27.3003 0 0 0 
486 162 2 6.12453 11.6787 26.1529 0 0 0 
487 163 1 5.40204 12.5406 29.1035 0 0 0 
488 163 2 5.72494 13.3166 29.6454 0 0 0 
489 163 2 4.41251 12.6109 28.9774 0 0 0 
490 164 1 4.82976 13.924 32.0076 0 0 0 
491 164 2 4.22739 13.5056 32.6874 0 0 0 
492 164 2 5.26423 14.7342 32.4009 0 0 0 
493 165 1 5.49526 12.5696 37.1608 0 0 0 
494 165 2 6.41892 12.8809 36.9373 0 0 0 
495 165 2 5.19633 12.9981 0.0613255 0 0 1 
496 166 1 6.18206 16.3568 2.25455 0 0 0 
497 166 2 6.19718 17.1932 1.70653 0 0 0 
498 166 2 7.11856 16.0919 2.48424 0 0 0 
499 167 1 5.79837 16.5932 5.56362 0 0 0 
500 167 2 5.65926 17.5801 5.48215 0 0 0 
501 167 2 5.36289 16.1303 4.79153 0 0 0 
502 168 1 5.77664 16.4583 8.2193 0 0 0 
503 168 2 4.86469 16.101 8.4209 0 0 0 
504 168 2 6.00155 16.277 7.26194 0 0 0 
505 169 1 6.26051 17.1105 12.0717 0 0 0 
506 169 2 6.69281 18.0116 12.0369 0 0 0 
507 169 2 5.81462 16.9207 11.197 0 0 0 
508 170 1 6.28308 14.2323 14.5801 0 0 0 
509 170 2 7.16933 14.2882 15.0399 0 0 0 
510 170 2 6.19321 14.9919 13.936 0 0 0 
511 171 1 7.55292 14.7025 19.0117 0 0 0 
512 171 2 7.65843 14.3448 19.9396 0 0 0 
513 171 2 7.28403 13.9609 18.3972 0 0 0 
514 172 1 7.04311 14.3336 21.7867 0 0 0 
515 172 2 6.22396 14.9018 21.7086 0 0 0 
516 172 2 7.57933 14.6288 22.5775 0 0 0 
517 173 1 5.47022 15.058 26.5034 0 0 0 
518 173 2 4.53143 14.7784 26.7046 0 0 0 
519 173 2 5.47615 16.0101 26.1976 0 0 0 
520 174 1 5.41221 15.9007 29.325 0 0 0 
521 174 2 5.59345 16.4945 30.1089 0 0 0 
522 174 2 5.73724 16.3435 28.4893 0 0 0 
523 175 1 5.5183 16.2041 33.4431 0 0 0 
524 175 2 4.87136 16.539 34.1282 0 0 0 
525 175 2 6.12226 16.9501 33.1624 0 0 0 
526 176 1 5.39851 15.6643 36.6639 0 0 0 
527 176 2 6.17066 15.0715 36.4351 0 0 0 
528 176 2 5.70299 16.6167 36.6807 0 0 0 
529 177 1 5.01574 18.9805 0.762473 0 0 0 
530 177 2 5.37044 19.8634 1.07024 0 0 0 
531 177 2 5.39546 18.7639 37.8152 0 0 -1 
532 178 1 5.66187 19.2922 5.1001 0 0 0 
533 178 2 5.4519 19.9764 5.7985 0 0 0 
534 178 2 5.12541 19.4802 4.27738 0 0 0 
535 179 1 6.78359 18.9554 8.82419 0 0 0 
536 179 2 6.18467 19.6283 8.39011 0 0 0 
537 179 2 6.31604 18.0725 8.86842 0 0 0 
538 180 1 7.52248 19.2882 11.371 0 0 0 
539 180 2 7.18753 20.2266 11.4556 0 0 0 
540 180 2 7.40149 18.9748 10.4291 0 0 0 
541 181 1 7.41935 19.3659 14.2169 0 0 0 
542 181 2 8.1055 19.771 14.8211 0 0 0 
543 181 2 7.67255 19.5351 13.2644 0 0 0 
544 182 1 6.55869 17.4211 19.6119 0 0 0 
545 182 2 6.10753 17.9459 18.8901 0 0 0 
546 182 2 6.80468 16.517 19.2625 0 0 0 
547 183 1 6.17131 17.8047 22.1206 0 0 0 
548 183 2 6.35461 17.7556 21.1388 0 0 0 
549 183 2 6.89386 18.3312 22.5686 0 0 0 
550 184 1 6.19159 17.8683 25.3228 0 0 0 
551 184 2 6.30428 18.4552 26.1246 0 0 0 
552 184 2 6.76811 18.206 24.5788 0 0 0 
553 185 1 5.64753 18.7279 28.1096 0 0 0 
554 185 2 4.71762 18.683 28.4746 0 0 0 
555 185 2 5.82251 19.6465 27.7552 0 0 0 
556 186 1 5.66286 18.7189 32.0017 0 0 0 
557 186 2 4.73978 18.3669 31.8467 0 0 0 
558 186 2 5.68309 19.6993 31.8053 0 0 0 
559 187 1 5.85445 18.4039 36.1332 0 0 0 
560 187 2 6.73609 18.2694 35.6808 0 0 0 
561 187 2 5.66546 19.3828 36.2105 0 0 0 
562 188 1 6.09636 21.5098 2.13264 0 0 0 
563 188 2 6.11443 22.4563 1.8104 0 0 0 
564 188 2 6.88176 21.3458 2.72952 0 0 0 
565 189 1 5.75759 21.1157 6.99851 0 0 0 
566 189 2 5.45488 22.0158 6.68512 0 0 0 
567 189 2 6.75697 21.0899 7.02253 0 0 0 
568 190 1 4.13012 21.3124 9.71206 0 0 0 
569 190 2 5.00203 21.378 10.1973 0 0 0 
570 190 2 3.85134 22.2217 9.40319 0 0 0 
571 191 1 6.26516 21.8691 11.7761 0 0 0 
572 191 2 6.94933 22.5983 11.7653 0 0 0 
573 191 2 5.40898 22.2209 12.1545 0 0 0 
574 192 1 6.80565 22.2607 14.6276 0 0 0 
575 192 2 6.89995 22.8645 13.8361 0 0 0 
576 192 2 6.93777 21.3119 14.3406 0 0 0 
577 193 1 6.16131 22.1378 18.3101 0 0 0 
578 193 2 6.47699 21.1928 18.3955 0 0 0 
579 193 2 6.042 22.533 19.221 0 0 0 
580 194 1 6.44586 23.9801 23.6188 0 0 0 
581 194 2 6.34968 24.5027 24.4659 0 0 0 
582 194 2 5.58695 23.5087 23.4186 0 0 0 
583 195 1 7.32829 22.0321 26.6414 0 0 0 
584 195 2 8.00348 21.3234 26.4368 0 0 0 
585 195 2 7.75698 22.9324 26.5665 0 0 0 
586 196 1 5.58728 22.8858 28.4978 0 0 0 
587 196 2 4.66994 23.2827 28.4678 0 0 0 
588 196 2 5.89044 22.6763 27.5682 0 0 0 
589 197 1 5.2219 21.5803 31.2587 0 0 0 
590 197 2 5.50489 22.2638 31.9317 0 0 0 
591 197 2 5.45481 21.9004 30.3404 0 0 0 
592 198 1 5.07435 21.0424 36.0662 0 0 0 
593 198 2 5.73504 21.6788 36.4644 0 0 0 
594 198 2 4.30113 21.5551 35.6929 0 0 0 
595 199 1 6.33182 24.2455 1.76122 0 0 0 
596 199 2 6.06 25.1525 1.4395 0 0 0 
597 199 2 6.94191 24.3399 2.54791 0 0 0 
598 200 1 5.2355 23.9528 6.34331 0 0 0 
599 200 2 5.66425 24.8057 6.64104 0 0 0 
600 200 2 4.33122 24.1489 5.9641 0 0 0 
601 201 1 6.28967 25.9007 8.24552 0 0 0 
602 201 2 6.23109 25.7706 9.23528 0 0 0 
603 201 2 6.05928 26.8472 8.01958 0 0 0 
604 202 1 5.87989 25.8682 10.8845 0 0 0 
605 202 2 5.70482 26.8316 11.0877 0 0 0 
606 202 2 5.06228 25.3303 11.09 0 0 0 
607 203 1 6.22619 25.827 15.2807 0 0 0 
608 203 2 6.0877 24.9885 15.8077 0 0 0 
609 203 2 5.39156 26.3773 15.3046 0 0 0 
610 204 1 6.34154 26.9116 19.4681 0 0 0 
611 204 2 6.34271 27.8631 19.1602 0 0 0 
612 204 2 6.7966 26.3399 18.7854 0 0 0 
613 205 1 6.60756 27.8026 22.4866 0 0 0 
614 205 2 5.85575 28.3448 22.8618 0 0 0 
615 205 2 6.30361 27.3445 21.6513 0 0 0 
616 206 1 6.16998 25.4467 26.2121 0 0 0 
617 206 2 5.70971 26.3334 26.1681 0 0 0 
618 206 2 7.15993 25.5859 26.2369 0 0 0 
619 207 1 5.45612 25.9626 28.9883 0 0 0 
620 207 2 5.63306 26.9459 29.0288 0 0 0 
621 207 2 5.77795 25.6018 28.1129 0 0 0 
622 208 1 5.75111 24.6173 31.435 0 0 0 
623 208 2 4.90276 24.9055 31.8791 0 0 0 
624 208 2 5.84562 25.0896 30.5586 0 0 0 
625 209 1 7.51333 22.2339 37.0166 0 0 0 
626 209 2 8.18605 22.76 36.4964 0 0 0 
627 209 2 7.43337 22.6138 37.9382 0 0 0 
628 210 1 7.13046 29.4085 3.78591 0 0 0 
629 210 2 6.56735 29.8752 3.10394 0 0 0 
630 210 2 7.79113 30.0532 4.17038 0 0 0 
631 211 1 5.45285 31.029 6.80379 0 0 0 
632 211 2 5.08346 31.9583 6.80512 0 0 0 
633 211 2 5.93638 30.8637 5.94421 0 0 0 
634 212 1 5.09675 28.7402 8.55315 0 0 0 
635 212 2 4.13298 28.4814 8.61745 0 0 0 
636 212 2 5.16711 29.7218 8.37543 0 0 0 
637 213 1 5.51614 28.36 12.2494 0 0 0 
638 213 2 6.12873 29.1129 12.0089 0 0 0 
639 213 2 5.91776 27.8288 12.9955 0 0 0 
640 214 1 5.95143 29.8479 16.1354 0 0 0 
641 214 2 5.96712 29.9775 17.1268 0 0 0 
642 214 2 5.11301 29.3691 15.875 0 0 0 
643 215 1 6.50758 29.6482 19.1155 0 0 0 
644 215 2 6.02826 30.4368 19.5007 0 0 0 
645 215 2 7.48949 29.742 19.28 0 0 0 
646 216 1 4.48345 29.3171 23.2488 0 0 0 
647 216 2 4.33245 29.8189 24.1005 0 0 0 
648 216 2 3.66474 29.3759 22.6777 0 0 0 
649 217 1 5.58368 28.1224 26.2894 0 0 0 
650 217 2 6.21717 28.5587 26.9284 0 0 0 
651 217 2 4.94598 28.8055 25.9335 0 0 0 
652 218 1 5.9381 28.631 29.4425 0 0 0 
653 218 2 5.54234 28.9624 30.299 0 0 0 
654 218 2 6.84502 29.0331 29.3168 0 0 0 
655 219 1 5.34968 29.1788 32.7459 0 0 0 
656 219 2 5.59988 29.8062 33.4833 0 0 0 
657 219 2 6.12314 28.5786 32.5421 0 0 0 
658 220 1 6.5013 29.5397 35.4307 0 0 0 
659 220 2 7.16662 29.7645 34.7187 0 0 0 
660 220 2 6.41421 30.3112 36.061 0 0 0 
661 221 1 6.07529 31.1562 1.96999 0 0 0 
662 221 2 5.98743 31.3704 0.997164 0 0 0 
663 221 2 6.51966 31.9187 2.44035 0 0 0 
664 222 1 4.70569 33.582 6.83596 0 0 0 
665 222 2 4.96198 34.524 6.61956 0 0 0 
666 222 2 3.80886 33.3816 6.4416 0 0 0 
667 223 1 5.74582 32.2193 9.95519 0 0 0 
668 223 2 6.39302 32.9276 10.2372 0 0 0 
669 223 2 5.40548 32.425 9.03767 0 0 0 
670 224 1 7.07264 33.9859 12.9482 0 0 0 
671 224 2 7.53882 34.4567 13.6972 0 0 0 
672 224 2 6.08338 34.0812 13.059 0 0 0 
673 225 1 6.63536 30.7883 12.0537 0 0 0 
674 225 2 6.31024 31.269 11.2393 0 0 0 
675 225 2 6.30893 31.2609 12.8723 0 0 0 
676 226 1 5.15018 32.1252 19.2754 0 0 0 
677 226 2 4.53959 32.8192 18.8939 0 0 0 
678 226 2 6.08652 32.476 19.2887 0 0 0 
679 227 1 4.64723 30.7089 25.5862 0 0 0 
680 227 2 5.37172 31.3489 25.8423 0 0 0 
681 227 2 3.78151 31.2022 25.5012 0 0 0 
682 228 1 6.28271 33.2083 25.9799 0 0 0 
683 228 2 5.89204 33.155 26.8989 0 0 0 
684 228 2 5.79491 33.9021 25.4501 0 0 0 
685 229 1 5.20802 33.5797 28.3843 0 0 0 
686 229 2 4.52587 32.9497 28.7554 0 0 0 
687 229 2 5.07985 34.4855 28.7884 0 0 0 
688 230 1 5.85436 33.5777 32.0323 0 0 0 
689 230 2 5.06247 32.9804 32.1592 0 0 0 
690 230 2 5.55158 34.5303 31.9997 0 0 0 
691 231 1 5.62646 32.8016 37.3553 0 0 0 
692 231 2 6.27854 32.9465 36.6111 0 0 0 
693 231 2 5.72355 33.5327 0.0784713 0 0 1 
694 232 1 5.41169 35.6983 2.1707 0 0 0 
695 232 2 5.74304 36.5862 2.48985 0 0 0 
696 232 2 5.96508 34.9707 2.57606 0 0 0 
697 233 1 5.45191 36.6281 6.42558 0 0 0 
698 233 2 5.63045 37.5975 6.25744 0 0 0 
699 233 2 4.84604 36.2724 5.71396 0 0 0 
700 234 1 4.87087 36.1966 9.09875 0 0 0 
701 234 2 4.26655 36.9387 9.38876 0 0 0 
702 234 2 5.11607 36.3228 8.13753 0 0 0 
703 235 1 5.1516 37.2357 12.1085 0 0 0 
704 235 2 4.71833 0.165205 12.2957 0 1 0 
705 235 2 6.02227 37.3851 11.6398 0 0 0 
706 236 1 5.6602 36.5896 14.6783 0 0 0 
707 236 2 6.36866 37.2459 14.938 0 0 0 
708 236 2 5.51785 36.6268 13.6892 0 0 0 
709 237 1 6.95481 33.647 17.7698 0 0 0 
710 237 2 6.14946 34.2113 17.5883 0 0 0 
711 237 2 7.75792 34.0664 17.3465 0 0 0 
712 238 1 6.6681 35.9933 23.2672 0 0 0 
713 238 2 6.42747 36.0925 24.2327 0 0 0 
714 238 2 6.79772 36.898 22.8613 0 0 0 
715 239 1 5.77044 36.5867 25.9625 0 0 0 
716 239 2 6.72822 36.5055 26.2383 0 0 0 
717 239 2 5.47082 37.5343 26.0735 0 0 0 
718 240 1 4.91409 36.1662 29.5877 0 0 0 
719 240 2 4.91829 36.213 30.5866 0 0 0 
720 240 2 4.3203 36.8833 29.2229 0 0 0 
721 241 1 5.51516 36.649 32.3593 0 0 0 
722 241 2 5.52175 36.282 33.2895 0 0 0 
723 241 2 5.26861 37.6178 32.385 0 0 0 
724 242 1 5.80244 35.6095 34.8318 0 0 0 
725 242 2 6.32692 34.7739 34.9951 0 0 0 
726 242 2 6.28414 36.389 35.2323 0 0 0 
727 243 1 8.90856 37.972 3.81001 0 -1 0 
728 243 2 8.87688 0.873254 4.33033 0 0 0 
729 243 2 9.80021 37.8855 3.36562 0 -1 0 
730 244 1 9.08575 2.39313 5.44402 0 0 0 
731 244 2 8.91729 1.92727 6.3127 0 0 0 
732 244 2 8.74649 3.33226 5.49818 0 0 0 
733 245 1 7.93454 1.64198 7.99284 0 0 0 
734 245 2 8.73109 1.0541 8.13393 0 0 0 
735 245 2 8.08184 2.51851 8.45108 0 0 0 
736 246 1 7.58713 0.458824 11.0697 0 0 0 
737 246 2 7.95187 1.11865 11.7267 0 0 0 
738 246 2 7.26214 0.94247 10.257 0 0 0 
739 247 1 8.9315 1.77558 12.972 0 0 0 
740 247 2 9.77683 1.49308 13.4254 0 0 0 
741 247 2 9.01869 2.7232 12.6647 0 0 0 
742 248 1 10.5429 2.45201 19.1713 0 0 0 
743 248 2 11.4128 2.67811 19.6095 0 0 0 