ITEM: TIMESTEP
65250
ITEM: NUMBER OF ATOMS
10825
ITEM: BOX BOUNDS pp pp pp
4.40364 83.5964
2.10174 39.8983
2.10174 39.8983
ITEM: ATOMS id mol type x y z ix iy iz 
1 1 1 14.5927 6.10191 24.031 0 0 -1 
2 1 2 14.9978 6.98393 24.2715 0 0 -1 
3 1 2 14.7867 5.89653 23.0717 0 0 -1 
4 2 1 67.0918 28.2917 4.03557 -1 -1 0 
5 2 2 67.3495 28.8061 3.21768 -1 -1 0 
6 2 2 67.6167 27.4414 4.07368 -1 -1 0 
7 3 1 14.3285 39.2618 7.27645 0 -1 0 
8 3 2 14.8001 39.353 6.39933 0 -1 0 
9 3 2 14.7638 39.8567 7.95226 0 -1 0 
10 4 1 76.9626 14.7705 26.2008 -1 0 0 
11 4 2 76.5745 14.224 25.4588 -1 0 0 
12 4 2 76.736 14.3492 27.0789 -1 0 0 
13 5 1 35.8132 22.8125 23.3841 0 -1 0 
14 5 2 36.6171 22.6589 23.9588 0 -1 0 
15 5 2 35.8194 23.754 23.0472 0 -1 0 
16 6 1 22.1729 35.4653 7.85641 0 -1 0 
17 6 2 22.544 35.4736 8.78492 0 -1 0 
18 6 2 22.6486 34.7732 7.31349 0 -1 0 
19 7 1 74.85 21.182 17.145 -1 0 0 
20 7 2 74.965 22.104 17.5147 -1 0 0 
21 7 2 75.7434 20.7391 17.0698 -1 0 0 
22 8 1 73.9534 16.1364 23.4955 -1 0 0 
23 8 2 73.86 15.8667 24.4539 -1 0 0 
24 8 2 74.2151 17.1002 23.4445 -1 0 0 
25 9 1 7.99658 24.2904 22.4274 0 0 0 
26 9 2 8.42203 24.6402 21.5927 0 0 0 
27 9 2 8.47483 24.6585 23.2247 0 0 0 
28 10 1 24.8319 38.0036 8.51244 0 -1 0 
29 10 2 25.024 37.8075 9.47404 0 -1 0 
30 10 2 23.8427 38.0305 8.36885 0 -1 0 
31 11 1 67.6153 36.9318 37.7339 -1 -1 0 
32 11 2 68.4014 37.4606 38.0538 -1 -1 0 
33 11 2 67.9336 36.1679 37.1725 -1 -1 0 
34 12 1 82.2937 34.9541 31.859 -1 -1 0 
35 12 2 82.5986 35.9049 31.8052 -1 -1 0 
36 12 2 81.8089 34.7114 31.0187 -1 -1 0 
37 13 1 77.2859 11.0061 36.4061 -1 0 -1 
38 13 2 77.6694 10.0828 36.4261 -1 0 -1 
39 13 2 77.6031 11.5162 37.2056 -1 0 -1 
40 14 1 74.6651 2.48064 29.781 -1 0 -1 
41 14 2 74.463 39.428 30.2689 -1 -1 -1 
42 14 2 73.9945 2.61339 29.0512 -1 0 -1 
43 15 1 25.3232 27.735 11.1351 0 -1 0 
44 15 2 26.0493 28.0168 11.7623 0 -1 0 
45 15 2 24.6243 27.2286 11.6404 0 -1 0 
46 16 1 8.10547 3.17403 10.2944 0 0 0 
47 16 2 8.7055 3.17831 9.49446 0 0 0 
48 16 2 8.58902 3.56833 11.0759 0 0 0 
49 17 1 12.4932 37.1944 6.49119 0 -1 0 
50 17 2 12.633 36.5133 7.20986 0 -1 0 
51 17 2 13.1707 37.9237 6.58688 0 -1 0 
52 18 1 22.4143 38.9802 10.9223 0 -1 0 
53 18 2 22.364 39.1352 9.93565 0 -1 0 
54 18 2 21.9471 38.1258 11.1497 0 -1 0 
55 19 1 13.5097 5.86377 10.0605 0 0 0 
56 19 2 12.8641 5.64214 9.3297 0 0 0 
57 19 2 14.3663 6.19009 9.66088 0 0 0 
58 20 1 52.5429 12.0343 12.0547 -1 0 0 
59 20 2 52.4736 12.4198 12.9748 -1 0 0 
60 20 2 51.7643 11.4294 11.8873 -1 0 0 
61 21 1 69.1114 17.5432 3.00039 -1 0 1 
62 21 2 69.7191 16.8975 2.53797 -1 0 1 
63 21 2 69.5359 17.8483 3.85285 -1 0 1 
64 22 1 83.2397 28.1331 31.7868 -1 -1 0 
65 22 2 4.67006 27.354 31.8562 0 -1 0 
66 22 2 83.3931 28.6063 30.9193 -1 -1 0 
67 23 1 72.3621 8.02799 4.75642 -1 0 1 
68 23 2 72.4872 8.35212 5.69412 -1 0 1 
69 23 2 72.9676 7.24994 4.58917 -1 0 1 
70 24 1 26.5877 39.6542 4.82954 0 -1 1 
71 24 2 26.6763 2.64301 5.44216 0 0 1 
72 24 2 25.641 39.5815 4.5156 0 -1 1 
73 25 1 17.0294 7.47853 38.8421 0 0 -1 
74 25 2 17.1449 8.46243 38.9785 0 0 -1 
75 25 2 17.1828 7.0018 39.7077 0 0 -1 
76 26 1 73.0337 14.4258 36.2069 -1 0 -1 
77 26 2 73.6271 15.1391 35.834 -1 0 -1 
78 26 2 73.4344 14.0654 37.0492 -1 0 -1 
79 27 1 77.7125 26.3105 25.9841 -1 0 -1 
80 27 2 77.9511 26.6376 26.8985 -1 0 -1 
81 27 2 77.4544 25.3456 26.0322 -1 0 -1 
82 28 1 29.8787 31.5393 6.39014 0 -1 0 
83 28 2 30.2388 32.4381 6.64008 0 -1 0 
84 28 2 29.0796 31.3317 6.95441 0 -1 0 
85 29 1 83.1917 37.3071 8.07184 -1 -1 0 
86 29 2 4.51038 38.1398 8.28414 0 -1 0 
87 29 2 4.5899 36.5108 8.20152 0 -1 0 
88 30 1 4.95489 9.26589 36.596 0 0 -1 
89 30 2 5.15981 8.48336 37.1839 0 0 -1 
90 30 2 83.1719 9.27194 36.3772 -1 0 -1 
91 31 1 76.9469 14.4705 35.0461 -1 0 -1 
92 31 2 76.5979 14.2269 34.1412 -1 0 -1 
93 31 2 77.8225 14.0126 35.2 -1 0 -1 
94 32 1 17.4428 10.1654 10.7583 0 0 0 
95 32 2 16.5924 9.79624 10.3836 0 0 0 
96 32 2 18.1635 10.1094 10.0673 0 0 0 
97 33 1 7.76983 33.0975 28.9225 0 -1 0 
98 33 2 8.5805 32.9754 29.4951 0 -1 0 
99 33 2 7.62875 34.072 28.7479 0 -1 0 
100 34 1 58.4302 11.9513 33.9278 -1 0 0 
101 34 2 59.1882 12.0554 34.5716 -1 0 0 
102 34 2 58.7556 12.1264 32.9986 -1 0 0 
103 35 1 15.5044 5.97932 21.3859 0 0 0 
104 35 2 16.0282 6.68869 20.9143 0 0 0 
105 35 2 14.9228 5.50129 20.7276 0 0 0 
106 36 1 5.61006 11.2654 22.2825 0 0 0 
107 36 2 4.85078 11.9147 22.2391 0 0 0 
108 36 2 6.46185 11.7597 22.456 0 0 0 
109 37 1 18.5368 12.6254 36.4351 0 0 -1 
110 37 2 18.0141 13.4773 36.4674 0 0 -1 
111 37 2 18.0848 11.9802 35.8192 0 0 -1 
112 38 1 9.35313 36.7552 9.86897 0 -1 0 
113 38 2 10.2699 36.786 10.2672 0 -1 0 
114 38 2 9.39554 37.0424 8.91206 0 -1 0 
115 39 1 17.8647 6.63198 22.8998 0 0 -1 
116 39 2 17.6661 6.95927 21.976 0 0 -1 
117 39 2 17.3069 5.82522 23.0947 0 0 -1 
118 40 1 79.7632 24.3562 14.0612 -1 0 0 
119 40 2 80.5636 23.7813 14.231 -1 0 0 
120 40 2 80.0614 25.2774 13.8114 -1 0 0 
121 41 1 5.26453 27.1009 4.8436 0 0 0 
122 41 2 5.80789 27.3489 5.64561 0 0 0 
123 41 2 4.78874 26.2386 5.01704 0 0 0 
124 42 1 80.4596 6.21294 11.2356 -1 0 0 
125 42 2 80.9976 5.87776 12.0091 -1 0 0 
126 42 2 79.6426 6.67918 11.5749 -1 0 0 
127 43 1 16.2984 30.7781 28.693 0 -1 0 
128 43 2 16.0257 31.7385 28.7488 0 -1 0 
129 43 2 15.7344 30.2348 29.3148 0 -1 0 
130 44 1 15.4985 12.2587 20.8652 0 0 0 
131 44 2 14.7887 11.9245 21.4853 0 0 0 
132 44 2 16.373 11.8342 21.0999 0 0 0 
133 45 1 7.41532 7.70197 29.7389 0 0 0 
134 45 2 6.79871 8.11613 29.0694 0 0 0 
135 45 2 8.15718 7.23065 29.2619 0 0 0 
136 46 1 11.791 17.0178 32.1476 0 0 0 
137 46 2 11.4875 16.7258 33.0545 0 0 0 
138 46 2 12.7905 17.0329 32.1194 0 0 0 
139 47 1 9.8733 3.03653 26.8859 0 0 0 
140 47 2 10.5552 2.32167 26.7312 0 0 0 
141 47 2 10.2907 3.79149 27.3917 0 0 0 
142 48 1 17.263 14.9192 7.0066 0 0 1 
143 48 2 17.0209 15.5336 6.25566 0 0 1 
144 48 2 18.1133 15.2304 7.43093 0 0 1 
145 49 1 23.8642 6.06616 18.0459 0 0 0 
146 49 2 23.7052 5.77802 17.1016 0 0 0 
147 49 2 24.6939 5.62866 18.3927 0 0 0 
148 50 1 8.89366 11.8563 8.97552 0 0 0 
149 50 2 8.26652 11.8776 8.19691 0 0 0 
150 50 2 8.73824 12.6594 9.5507 0 0 0 
151 51 1 77.6659 7.86195 11.4259 -1 0 0 
152 51 2 77.0018 8.60635 11.3568 -1 0 0 
153 51 2 77.1883 7.00675 11.6271 -1 0 0 
154 52 1 25.6105 27.5488 24.537 0 0 0 
155 52 2 26.5138 27.7809 24.8978 0 0 0 
156 52 2 25.6471 27.5236 23.538 0 0 0 
157 53 1 17.8132 4.12933 24.1275 0 0 0 
158 53 2 18.8064 4.0633 24.2235 0 0 0 
159 53 2 17.376 3.83731 24.9781 0 0 0 
160 54 1 81.9131 15.0089 17.7264 -1 0 0 
161 54 2 82.0811 14.0243 17.7738 -1 0 0 
162 54 2 82.2994 15.4522 18.5353 -1 0 0 
163 55 1 23.9958 9.08128 2.97823 0 0 0 
164 55 2 24.075 9.47686 39.8597 0 0 -1 
165 55 2 24.7644 9.38602 3.54073 0 0 0 
166 56 1 68.979 6.67142 35.1117 -1 0 0 
167 56 2 69.7068 7.21075 34.6881 -1 0 0 
168 56 2 68.1638 7.24007 35.222 -1 0 0 
169 57 1 11.8642 39.0509 8.34308 0 -1 1 
170 57 2 12.7992 39.0838 7.98992 0 -1 1 
171 57 2 11.3179 38.4285 7.78259 0 -1 1 
172 58 1 76.7217 11.3592 31.202 -1 0 0 
173 58 2 76.7394 10.5118 31.7326 -1 0 0 
174 58 2 77.6426 11.5645 30.8708 -1 0 0 
175 59 1 78.0785 27.0246 12.7635 -1 0 1 
176 59 2 77.3539 27.2865 12.126 -1 0 1 
177 59 2 77.6856 26.4957 13.5157 -1 0 1 
178 60 1 74.188 21.8492 39.2315 -1 0 0 
179 60 2 74.8484 22.1067 38.5261 -1 0 0 
180 60 2 74.2441 20.8647 39.3972 -1 0 0 
181 61 1 52.7676 7.62955 35.308 -1 0 -1 
182 61 2 52.6875 6.75741 35.7906 -1 0 -1 
183 61 2 53.6634 8.03277 35.4948 -1 0 -1 
184 62 1 80.3039 16.8317 3.91046 -1 0 0 
185 62 2 79.7476 16.2924 4.54258 -1 0 0 
186 62 2 79.8679 16.8448 3.01059 -1 0 0 
187 63 1 9.7015 27.7567 5.62543 0 0 0 
188 63 2 10.1393 27.8516 6.51948 0 0 0 
189 63 2 8.80517 28.1997 5.64446 0 0 0 
190 64 1 5.82588 12.6609 37.9708 0 0 -1 
191 64 2 5.3806 13.3781 37.4348 0 0 -1 
192 64 2 6.54995 12.2383 37.4258 0 0 -1 
193 65 1 14.003 35.733 23.1338 0 0 0 
194 65 2 13.1514 36.2134 23.3435 0 0 0 
195 65 2 14.5455 36.2795 22.4957 0 0 0 
196 66 1 70.1652 20.7717 12.6957 -1 0 0 
197 66 2 70.3232 21.0231 11.7409 -1 0 0 
198 66 2 70.8136 21.2592 13.2805 -1 0 0 
199 67 1 71.1844 10.8381 33.938 -1 0 0 
200 67 2 71.4327 11.4099 34.7199 -1 0 0 
201 67 2 70.1941 10.8699 33.8029 -1 0 0 
202 68 1 83.5255 26.3727 18.427 -1 0 0 
203 68 2 5.28973 26.4579 18.1495 0 0 0 
204 68 2 83.0106 25.9048 17.7086 -1 0 0 
205 69 1 80.4952 27.5332 34.8976 -1 -1 0 
206 69 2 81.0599 26.7436 34.6574 -1 -1 0 
207 69 2 80.6906 27.8086 35.8389 -1 -1 0 
208 70 1 8.20677 13.4321 28.9191 0 0 0 
209 70 2 8.48952 13.0035 29.7773 0 0 0 
210 70 2 8.04237 14.4066 29.0716 0 0 0 
211 71 1 54.6513 8.65999 20.3676 -1 0 0 
212 71 2 54.3152 9.09033 19.5299 -1 0 0 
213 71 2 53.9367 8.07544 20.7519 -1 0 0 
214 72 1 9.57968 27.9401 32.0065 0 0 0 
215 72 2 8.97258 27.9438 32.8012 0 0 0 
216 72 2 10.5283 28.0244 32.3115 0 0 0 
217 73 1 4.57638 19.1778 30.7474 0 0 -1 
218 73 2 5.44048 18.7152 30.9457 0 0 -1 
219 73 2 4.76286 20.077 30.3516 0 0 -1 
220 74 1 79.4454 10.0119 10.6795 -1 0 0 
221 74 2 79.0483 10.8757 10.9897 -1 0 0 
222 74 2 78.9211 9.24914 11.0581 -1 0 0 
223 75 1 79.0342 25.7091 38.7171 -1 0 -1 
224 75 2 79.418 25.3557 37.864 -1 0 -1 
225 75 2 78.2703 25.1308 39.0036 -1 0 -1 
226 76 1 12.5634 25.1325 20.5501 0 0 0 
227 76 2 12.2335 25.6692 21.3267 0 0 0 
228 76 2 13.1708 24.4093 20.8788 0 0 0 
229 77 1 72.5004 22.1643 19.1044 -1 0 0 
230 77 2 71.6074 22.0363 19.5358 -1 0 0 
231 77 2 72.9519 21.2778 19.0034 -1 0 0 
232 78 1 14.6431 33.1497 22.4685 0 0 0 
233 78 2 14.9302 32.5561 23.2203 0 0 0 
234 78 2 14.4308 34.0597 22.8248 0 0 0 
235 79 1 14.4278 17.8601 11.8074 0 0 0 
236 79 2 13.8339 18.6414 11.9993 0 0 0 
237 79 2 13.9666 17.2385 11.1742 0 0 0 
238 80 1 15.0151 33.4033 8.90955 0 0 0 
239 80 2 15.3895 33.798 8.07047 0 0 0 
240 80 2 14.566 32.5353 8.69805 0 0 0 
241 81 1 63.5775 28.0339 35.6485 -1 0 0 
242 81 2 64.3415 27.7468 36.2262 -1 0 0 
243 81 2 62.7155 27.7629 36.0769 -1 0 0 
244 82 1 22.7024 29.8449 22.3995 0 0 0 
245 82 2 21.9072 29.4826 21.9132 0 0 0 
246 82 2 23.5337 29.4179 22.0437 0 0 0 
247 83 1 22.7802 32.5338 21.4659 0 0 0 
248 83 2 22.325 31.7458 21.8804 0 0 0 
249 83 2 22.2491 33.3608 21.6504 0 0 0 
250 84 1 73.2234 22.2984 34.8385 -1 0 0 
251 84 2 73.2257 22.9137 35.6268 -1 0 0 
252 84 2 72.5014 22.573 34.2034 -1 0 0 
253 85 1 68.6383 21.4446 3.89361 -1 0 0 
254 85 2 67.8552 21.2097 3.31774 -1 0 0 
255 85 2 69.1803 20.6231 4.07046 -1 0 0 
256 86 1 76.5959 23.4602 36.8206 -1 0 -1 
257 86 2 76.3942 24.3817 36.4889 -1 0 -1 
258 86 2 77.1629 23.5184 37.6423 -1 0 -1 
259 87 1 67.5832 5.5557 38.8353 -1 1 -1 
260 87 2 68.078 6.41545 38.9621 -1 1 -1 
261 87 2 67.7753 5.19195 37.9238 -1 1 -1 
262 88 1 6.23018 27.998 14.7771 0 0 0 
263 88 2 5.77449 28.6702 15.3606 0 0 0 
264 88 2 5.65062 27.1881 14.6863 0 0 0 
265 89 1 20.3085 28.8146 27.8456 0 0 0 
266 89 2 19.3855 28.703 27.4773 0 0 0 
267 89 2 20.2825 29.4384 28.6267 0 0 0 
268 90 1 11.3641 15.1061 17.2994 0 0 0 
269 90 2 11.4237 15.8917 17.9152 0 0 0 
270 90 2 10.9412 14.3375 17.7795 0 0 0 
271 91 1 24.9373 35.7975 13.8621 0 0 0 
272 91 2 25.0348 36.6059 14.4427 0 0 0 
273 91 2 24.1903 35.2285 14.2058 0 0 0 
274 92 1 8.30089 12.0141 22.88 0 1 0 
275 92 2 9.03836 12.2805 22.2594 0 1 0 
276 92 2 8.6114 12.1073 23.826 0 1 0 
277 93 1 10.5449 5.65611 17.6823 0 1 0 
278 93 2 10.7439 5.03001 16.9284 0 1 0 
279 93 2 9.81238 5.27578 18.2469 0 1 0 
280 94 1 10.6206 35.5592 28.782 0 0 0 
281 94 2 9.66196 35.358 28.5809 0 0 0 
282 94 2 10.7423 36.5478 28.8702 0 0 0 
283 95 1 65.9713 33.7165 36.6305 -1 0 0 
284 95 2 65.6997 34.0747 35.7372 -1 0 0 
285 95 2 65.1698 33.3431 37.0976 -1 0 0 
286 96 1 10.3376 20.8097 10.9309 0 0 0 
287 96 2 9.94324 19.9117 10.7358 0 0 0 
288 96 2 11.0459 21.0164 10.256 0 0 0 
289 97 1 11.6319 25.6399 7.81426 0 0 0 
290 97 2 12.5549 25.4094 7.50637 0 0 0 
291 97 2 10.9685 25.0581 7.34363 0 0 0 
292 98 1 80.4962 20.9614 3.09966 -1 0 0 
293 98 2 81.0221 20.1655 3.39947 -1 0 0 
294 98 2 79.7232 21.1024 3.71816 -1 0 0 
295 99 1 78.8238 29.3728 10.4095 -1 0 0 
296 99 2 78.8197 29.755 9.48549 -1 0 0 
297 99 2 79.7177 28.9661 10.5981 -1 0 0 
298 100 1 6.69634 26.275 30.0137 0 0 -1 
299 100 2 6.04349 26.5314 29.3009 0 0 -1 
300 100 2 7.60726 26.6045 29.7656 0 0 -1 
301 101 1 75.1152 30.1135 16.0316 -1 0 0 
302 101 2 76.0432 29.7676 16.1705 -1 0 0 
303 101 2 74.6937 29.6365 15.2604 -1 0 0 
304 102 1 69.0283 16.7208 9.06206 -1 0 0 
305 102 2 69.6648 17.2993 9.57213 -1 0 0 
306 102 2 69.3142 16.674 8.10494 -1 0 0 
307 103 1 20.7287 2.82871 38.5221 0 1 0 
308 103 2 20.6312 39.8064 39.0877 0 0 0 
309 103 2 20.014 2.83777 37.8227 0 1 0 
310 104 1 12.108 37.8552 23.4975 0 0 0 
311 104 2 12.3396 38.6967 23.0093 0 0 0 
312 104 2 11.1347 37.6585 23.3795 0 0 0 
313 105 1 8.30488 28.1157 25.512 0 0 0 
314 105 2 8.50294 27.9349 26.4753 0 0 0 
315 105 2 8.69703 28.9978 25.2509 0 0 0 
316 106 1 62.1126 11.758 23.97 -1 1 0 
317 106 2 63.0225 11.7963 24.383 -1 1 0 
318 106 2 61.6345 10.9408 24.292 -1 1 0 
319 107 1 6.27748 13.0442 26.3756 0 1 0 
320 107 2 5.58875 12.5367 26.8933 0 1 0 
321 107 2 6.82554 13.5973 27.0031 0 1 0 
322 108 1 19.2751 3.82312 29.9218 0 1 0 
323 108 2 18.7964 2.95857 30.0749 0 1 0 
324 108 2 19.3062 4.01779 28.9414 0 1 0 
325 109 1 71.6886 12.2188 28.2331 -1 1 -1 
326 109 2 72.0935 11.4855 28.7794 -1 1 -1 
327 109 2 71.1788 12.8373 28.8311 -1 1 -1 
328 110 1 83.1717 32.2038 10.0684 -1 0 0 
329 110 2 4.46415 31.5579 9.4789 0 0 0 
330 110 2 82.3108 32.4692 9.63441 -1 0 0 
331 111 1 6.96329 28.9495 37.3665 0 0 -1 
332 111 2 7.74231 29.5541 37.2007 0 0 -1 
333 111 2 6.11306 29.4447 37.188 0 0 -1 
334 112 1 18.8314 37.4272 26.9121 0 0 0 
335 112 2 18.2386 36.9953 26.2323 0 0 0 
336 112 2 19.7127 36.9551 26.9338 0 0 0 
337 113 1 17.6809 22.6507 5.93537 0 0 0 
338 113 2 18.4036 23.3009 5.70092 0 0 0 
339 113 2 16.9849 22.6527 5.21731 0 0 0 
340 114 1 6.55381 20.8858 33.7512 0 1 0 
341 114 2 6.95649 20.3142 33.0363 0 1 0 
342 114 2 5.56608 20.9507 33.6092 0 1 0 
343 115 1 70.0371 8.95532 28.5004 -1 1 0 
344 115 2 69.3899 8.2065 28.6432 -1 1 0 
345 115 2 69.5413 9.82321 28.4703 -1 1 0 
346 116 1 81.189 11.6923 36.6033 -1 1 0 
347 116 2 81.5478 12.4202 37.1876 -1 1 0 
348 116 2 81.7603 11.6081 35.7869 -1 1 0 
349 117 1 6.89166 19.7688 28.8923 0 0 0 
350 117 2 6.62323 18.8392 28.6397 0 0 0 
351 117 2 6.09869 20.3744 28.8257 0 0 0 
352 118 1 72.5799 30.7341 2.6616 -1 0 1 
353 118 2 72.2918 30.3114 3.52087 -1 0 1 
354 118 2 73.2433 31.4577 2.85204 -1 0 1 
355 119 1 72.0586 34.8921 27.4076 -1 0 0 
356 119 2 72.3269 35.6791 26.8522 -1 0 0 
357 119 2 71.1304 34.6121 27.1626 -1 0 0 
358 120 1 20.8183 18.1769 35.388 0 1 0 
359 120 2 21.7058 18.0089 35.8171 0 1 0 
360 120 2 20.9527 18.4122 34.4254 0 1 0 
361 121 1 83.2998 39.5522 21.2303 -1 0 -1 
362 121 2 4.89777 2.20925 20.8192 0 1 -1 
363 121 2 82.8244 2.39616 21.8334 -1 1 -1 
364 122 1 15.5881 8.31964 27.5405 0 0 -1 
365 122 2 15.9584 7.44816 27.862 0 0 -1 
366 122 2 15.8739 9.0517 28.1589 0 0 -1 
367 123 1 77.6533 12.9905 16.0986 -1 1 0 
368 123 2 78.3295 12.6251 16.7384 -1 1 0 
369 123 2 77.9749 12.8566 15.1613 -1 1 0 
370 124 1 82.5191 37.8177 14.514 -1 0 0 
371 124 2 82.388 38.1733 15.4394 -1 0 0 
372 124 2 83.3964 37.3407 14.4614 -1 0 0 
373 125 1 66.1899 34.7612 17.4513 -1 0 0 
374 125 2 66.6947 34.0533 17.9453 -1 0 0 
375 125 2 66.7813 35.5551 17.3099 -1 0 0 
376 126 1 11.6045 21.6606 15.2984 0 0 0 
377 126 2 11.1416 22.4756 15.6469 0 0 0 
378 126 2 12.4287 21.9323 14.8015 0 0 0 
379 127 1 15.2205 15.191 29.3236 0 0 0 
380 127 2 15.2871 15.8807 28.6026 0 0 0 
381 127 2 16.1323 14.8365 29.531 0 0 0 
382 128 1 13.5669 3.3229 39.8079 0 1 -1 
383 128 2 13.8514 4.26967 2.16217 0 1 0 
384 128 2 14.3158 2.81337 39.3841 0 1 -1 
385 129 1 79.7728 11.9568 29.65 -1 1 0 
386 129 2 80.2329 12.2934 30.4716 -1 1 0 
387 129 2 79.7754 12.6712 28.9502 -1 1 0 
388 130 1 77.3151 2.91809 12.6355 -1 1 0 
389 130 2 76.3973 2.75999 12.2712 -1 1 0 
390 130 2 77.7215 39.8417 12.9055 -1 0 0 
391 131 1 76.8716 4.5918 5.36544 -1 1 1 
392 131 2 76.2795 5.27839 4.94366 -1 1 1 
393 131 2 77.0334 4.83358 6.3222 -1 1 1 
394 132 1 81.1415 5.58087 14.2819 -1 1 0 
395 132 2 80.205 5.23677 14.3494 -1 1 0 
396 132 2 81.7749 4.8965 14.6431 -1 1 0 
397 133 1 79.591 30.9412 25.4856 -1 0 -1 
398 133 2 78.5915 30.9184 25.5082 -1 0 -1 
399 133 2 79.8968 31.2651 24.5903 -1 0 -1 
400 134 1 81.3923 23.7176 9.8178 -1 0 0 
401 134 2 80.4195 23.784 10.0397 -1 0 0 
402 134 2 81.4982 23.4106 8.87198 -1 0 0 
403 135 1 11.157 16.341 23.7968 0 1 -1 
404 135 2 10.2399 16.7135 23.9391 0 1 -1 
405 135 2 11.152 15.3599 23.9905 0 1 -1 
406 136 1 4.49638 30.06 3.63552 0 0 0 
407 136 2 5.13444 30.8059 3.44451 0 0 0 
408 136 2 4.97245 29.1846 3.55218 0 0 0 
409 137 1 5.24541 24.0328 24.2432 0 0 0 
410 137 2 4.46522 24.5543 23.8979 0 0 0 
411 137 2 5.7233 24.5692 24.9389 0 0 0 
412 138 1 28.0151 17.0103 10.5126 0 0 0 
413 138 2 27.1824 16.8859 11.0521 0 0 0 
414 138 2 28.6447 17.6111 11.0051 0 0 0 
415 139 1 14.0589 14.3851 4.30729 0 1 0 
416 139 2 14.649 15.137 4.60095 0 1 0 
417 139 2 13.5124 14.6773 3.52244 0 1 0 
418 140 1 12.7775 5.56161 5.88842 0 1 0 
419 140 2 12.5147 4.61483 5.70253 0 1 0 
420 140 2 12.6015 5.77377 6.84967 0 1 0 
421 141 1 55.2959 16.0415 29.6088 -1 1 0 
422 141 2 54.903 15.1287 29.7203 -1 1 0 
423 141 2 56.2456 16.0361 29.9218 -1 1 0 
424 142 1 6.04819 30.3384 16.5261 0 0 0 
425 142 2 6.83192 30.7857 16.0952 0 0 0 
426 142 2 6.36664 29.7553 17.2735 0 0 0 
427 143 1 72.9177 33.0535 19.3402 -1 0 0 
428 143 2 73.0798 34.0387 19.2844 -1 0 0 
429 143 2 73.1137 32.6328 18.4544 -1 0 0 
430 144 1 8.66956 16.0605 12.2343 0 0 1 
431 144 2 9.02893 16.244 13.1493 0 0 1 
432 144 2 7.70209 15.816 12.2991 0 0 1 
433 145 1 82.3415 23.3014 7.10718 -1 0 0 
434 145 2 82.4576 23.9606 6.36422 -1 0 0 
435 145 2 83.0438 22.593 7.03716 -1 0 0 
436 146 1 16.5729 36.3281 18.4107 0 -1 -1 
437 146 2 16.3409 35.4099 18.7318 0 -1 -1 
438 146 2 17.3249 36.2715 17.754 0 -1 -1 
439 147 1 72.9742 38.0863 21.5898 -1 -1 0 
440 147 2 73.9657 38.0954 21.7191 -1 -1 0 
441 147 2 72.7534 38.4399 20.6808 -1 -1 0 
442 148 1 6.55534 5.2429 27.3533 0 0 0 
443 148 2 6.87508 4.38906 26.9425 0 0 0 
444 148 2 6.77009 5.24383 28.3299 0 0 0 
445 149 1 4.78964 19.2141 20.6565 0 0 0 
446 149 2 5.24869 18.4381 21.089 0 0 0 
447 149 2 83.4714 19.7261 21.347 -1 0 0 
448 150 1 9.36483 12.0534 37.4408 0 0 -1 
449 150 2 8.60506 11.5708 37.0051 0 0 -1 
450 150 2 9.87078 12.5707 36.7506 0 0 -1 
451 151 1 79.9341 16.4349 8.33007 -1 0 0 
452 151 2 80.8409 16.4608 8.75084 -1 0 0 
453 151 2 79.4724 17.3093 8.47919 -1 0 0 
454 152 1 11.8255 29.3124 17.4098 0 -1 0 
455 152 2 11.1409 29.6039 18.0779 0 -1 0 
456 152 2 12.7171 29.2391 17.8564 0 -1 0 
457 153 1 17.5835 26.2056 33.1075 0 -1 0 
458 153 2 17.7688 26.2068 32.1248 0 -1 0 
459 153 2 16.9258 26.9272 33.3236 0 -1 0 
460 154 1 83.0195 39.4551 38.6268 -1 -1 0 
461 154 2 83.3258 2.35138 37.974 -1 0 0 
462 154 2 4.60448 38.8902 38.9027 0 -1 0 
463 155 1 12.2156 12.2094 25.855 0 0 0 
464 155 2 12.5062 11.2527 25.8396 0 0 0 
465 155 2 11.5808 12.3527 26.6143 0 0 0 
466 156 1 34.6536 3.05968 3.1262 0 0 1 
467 156 2 35.6218 3.30776 3.1573 0 0 1 
468 156 2 34.3865 2.64908 3.99803 0 0 1 
469 157 1 7.51802 35.8524 28.584 0 -1 -1 
470 157 2 7.66329 36.5223 29.3122 0 -1 -1 
471 157 2 7.17148 36.3163 27.7687 0 -1 -1 
472 158 1 4.46874 32.5405 34.8124 0 -1 -1 
473 158 2 83.231 31.9972 35.5332 -1 -1 -1 
474 158 2 5.46185 32.4352 34.8636 0 -1 -1 
475 159 1 23.9615 5.1373 15.4133 0 0 0 
476 159 2 23.4609 4.27821 15.3065 0 0 0 
477 159 2 23.5706 5.82856 14.8055 0 0 0 
478 160 1 7.82589 4.36183 18.9876 0 0 0 
479 160 2 7.55437 4.71433 19.8832 0 0 0 
480 160 2 7.52482 3.41247 18.8978 0 0 0 
481 161 1 13.3767 9.25125 2.15002 0 0 1 
482 161 2 12.9107 10.0466 2.53751 0 0 1 
483 161 2 13.6741 8.64654 2.88884 0 0 1 
484 162 1 7.51489 38.4316 21.5858 0 -1 0 
485 162 2 6.9251 37.858 21.0174 0 -1 0 
486 162 2 8.14191 37.8521 22.1064 0 -1 0 
487 163 1 15.4994 33.3025 11.7366 0 -1 0 
488 163 2 16.0575 32.5419 12.0684 0 -1 0 
489 163 2 15.2548 33.1441 10.78 0 -1 0 
490 164 1 17.4361 8.29238 8.42409 0 0 0 
491 164 2 18.1253 9.00397 8.28743 0 0 0 
492 164 2 17.8885 7.4081 8.53988 0 0 0 
493 165 1 9.42527 14.6957 4.08847 0 0 1 
494 165 2 9.72826 14.7948 3.14064 0 0 1 
495 165 2 9.42922 15.5906 4.53489 0 0 1 
496 166 1 12.4989 17.6449 21.497 0 0 0 
497 166 2 12.135 17.1844 22.3066 0 0 0 
498 166 2 11.7806 18.2009 21.0787 0 0 0 
499 167 1 11.3261 19.4728 17.0001 0 0 0 
500 167 2 12.209 19.0061 17.0512 0 0 0 
501 167 2 11.3136 20.0761 16.2027 0 0 0 
502 168 1 4.54577 39.5965 34.7469 0 -1 0 
503 168 2 82.7821 39.8259 34.5663 -1 -1 0 
504 168 2 4.90784 2.41091 35.4509 0 0 0 
505 169 1 10.4657 11.1918 11.3803 0 0 0 
506 169 2 10.1383 11.5033 10.4882 0 0 0 
507 169 2 10.1039 11.7898 12.0955 0 0 0 
508 170 1 15.6173 27.0919 36.73 0 0 -1 
509 170 2 15.2183 27.1025 35.8131 0 0 -1 
510 170 2 15.3189 26.2693 37.2139 0 0 -1 
511 171 1 19.2176 25.9314 26.2714 0 0 0 
512 171 2 18.5498 26.5366 25.8381 0 0 0 
513 171 2 19.0207 25.8637 27.2495 0 0 0 
514 172 1 73.7493 18.4414 14.6072 -1 0 0 
515 172 2 74.743 18.3748 14.6973 -1 0 0 
516 172 2 73.3896 17.5834 14.2405 -1 0 0 
517 173 1 78.7083 27.6709 28.7756 -1 -1 0 
518 173 2 78.3994 27.1861 29.5939 -1 -1 0 
519 173 2 78.567 28.6534 28.8971 -1 -1 0 
520 174 1 74.6536 13.7306 3.60024 -1 0 1 
521 174 2 75.6242 13.7518 3.36082 -1 0 1 
522 174 2 74.4533 14.4675 4.24597 -1 0 1 
523 175 1 10.7255 32.9451 14.4303 0 0 0 
524 175 2 11.0746 32.0485 14.7026 0 0 0 
525 175 2 11.4258 33.4306 13.9069 0 0 0 
526 176 1 10.7635 8.88771 35.7741 0 0 0 
527 176 2 10.1953 8.33707 36.3856 0 0 0 
528 176 2 10.5711 8.63772 34.8251 0 0 0 
529 177 1 70.8813 11.7176 39.7083 -1 0 0 
530 177 2 70.9412 12.247 38.8621 -1 0 0 
531 177 2 71.3644 12.2006 2.64201 -1 0 1 
532 178 1 11.2101 16.0558 34.6025 0 0 0 
533 178 2 11.6032 16.817 35.1182 0 0 0 
534 178 2 10.2535 15.933 34.8668 0 0 0 
535 179 1 14.096 3.50271 35.2398 0 0 0 
536 179 2 13.7462 4.26423 34.6942 0 0 0 
537 179 2 13.4159 3.24421 35.9259 0 0 0 
538 180 1 10.5651 36.3565 4.59191 0 -1 1 
539 180 2 11.324 36.4787 5.23161 0 -1 1 
540 180 2 10.8299 35.7047 3.88124 0 -1 1 
541 181 1 14.8267 5.7682 2.11304 0 0 0 
542 181 2 15.3218 6.38716 39.2999 0 0 -1 
543 181 2 14.5612 6.25928 2.94272 0 0 0 
544 182 1 10.4241 7.94521 6.40637 0 0 0 
545 182 2 9.58468 8.46447 6.24579 0 0 0 
546 182 2 11.1958 8.57593 6.48743 0 0 0 
547 183 1 78.695 30.1756 7.42319 -1 0 0 
548 183 2 78.5915 29.6908 6.5547 -1 0 0 
549 183 2 79.3864 30.8913 7.32512 -1 0 0 
550 184 1 10.6693 15.3781 8.76223 0 0 0 
551 184 2 9.95175 15.7061 8.14784 0 0 0 
552 184 2 11.4148 14.9848 8.2241 0 0 0 
553 185 1 71.5949 11.4478 12.8004 -1 0 0 
554 185 2 70.8226 11.4564 13.4356 -1 0 0 
555 185 2 72.2654 12.1343 13.0817 -1 0 0 
556 186 1 26.2582 9.70486 4.39957 0 0 0 
557 186 2 26.1492 9.06041 5.1564 0 0 0 
558 186 2 27.231 9.82469 4.2013 0 0 0 
559 187 1 12.677 24.4229 14.9607 0 0 0 
560 187 2 12.7565 25.3176 14.5212 0 0 0 
561 187 2 12.0554 24.489 15.7412 0 0 0 
562 188 1 7.87848 8.37313 17.3164 0 0 0 
563 188 2 7.61269 9.33652 17.3513 0 0 0 
564 188 2 8.87509 8.30369 17.2724 0 0 0 
565 189 1 13.6826 16.9923 7.84306 0 0 0 
566 189 2 14.4423 17.6426 7.84519 0 0 0 
567 189 2 14.0337 16.069 7.99878 0 0 0 
568 190 1 75.104 31.4298 29.7651 -1 0 0 
569 190 2 75.168 31.121 30.7141 -1 0 0 
570 190 2 74.5895 32.2865 29.7273 -1 0 0 
571 191 1 78.4114 4.91757 14.2286 -1 0 1 
572 191 2 77.7997 5.62996 14.5726 -1 0 1 
573 191 2 77.8752 4.2157 13.7597 -1 0 1 
574 192 1 20.3623 5.65026 27.2608 0 0 0 
575 192 2 21.3001 5.49296 27.5704 0 0 0 
576 192 2 20.1389 6.62053 27.3539 0 0 0 
577 193 1 30.2804 37.4331 3.2966 0 -1 0 
578 193 2 31.2748 37.5382 3.31257 0 -1 0 
579 193 2 29.9384 37.6368 2.37926 0 -1 0 
580 194 1 14.4397 27.8601 2.937 0 0 0 
581 194 2 13.4522 27.914 3.08497 0 0 0 
582 194 2 14.8865 28.635 3.38415 0 0 0 
583 195 1 62.3048 12.2764 8.89073 -1 0 0 
584 195 2 62.3825 12.6503 9.81495 -1 0 0 
585 195 2 63.1836 11.8879 8.61338 -1 0 0 
586 196 1 8.96888 23.7865 4.46491 0 0 0 
587 196 2 8.80321 24.6564 4.00044 0 0 0 
588 196 2 9.9402 23.5564 4.40507 0 0 0 
589 197 1 23.7692 34.3034 32.1993 0 0 0 
590 197 2 24.5624 33.8272 32.5788 0 0 0 
591 197 2 24.0364 35.2256 31.9196 0 0 0 
592 198 1 13.5964 21.5112 28.6296 0 0 0 
593 198 2 14.422 21.7258 28.1077 0 0 0 
594 198 2 13.6461 20.5683 28.959 0 0 0 
595 199 1 79.5386 14.0949 27.4425 -1 0 0 
596 199 2 78.6422 13.9611 27.02 -1 0 0 
597 199 2 79.851 15.0295 27.2726 -1 0 0 
598 200 1 73.9338 26.4013 28.5605 -1 0 0 
599 200 2 72.9718 26.5837 28.7635 -1 0 0 
600 200 2 74.5034 27.1048 28.9855 -1 0 0 
601 201 1 18.8691 26.6531 18.993 0 0 0 
602 201 2 18.1326 27.1137 19.4885 0 0 0 
603 201 2 19.2478 27.2736 18.3064 0 0 0 
604 202 1 80.0711 15.6119 13.2826 -1 0 0 
605 202 2 79.4464 15.5778 12.5025 -1 0 0 
606 202 2 81.0098 15.7151 12.9536 -1 0 0 
607 203 1 77.9544 37.1663 31.9458 -1 -1 0 
608 203 2 77.9545 36.6082 31.1161 -1 -1 0 
609 203 2 77.02 37.2479 32.2925 -1 -1 0 
610 204 1 15.3 4.09939 28.5252 0 0 0 
611 204 2 16.0037 4.76351 28.2729 0 0 0 
612 204 2 15.1451 4.13666 29.5125 0 0 0 
613 205 1 21.1871 23.6264 32.8696 0 0 -1 
614 205 2 20.5872 24.0974 33.5163 0 0 -1 
615 205 2 21.1941 22.6475 33.0736 0 0 -1 
616 206 1 81.7735 17.4017 29.8566 -1 0 -1 
617 206 2 82.1125 16.9 29.0608 -1 0 -1 
618 206 2 82.5316 17.8862 30.293 -1 0 -1 
619 207 1 18.3316 38.9 8.5879 0 0 0 
620 207 2 17.8225 39.2945 9.3529 0 0 0 
621 207 2 18.3754 37.9066 8.69359 0 0 0 
622 208 1 8.75522 9.32846 2.31355 0 1 0 
623 208 2 7.95242 9.60549 2.84151 0 1 0 
624 208 2 9.4791 10.0092 2.42574 0 1 0 
625 209 1 10.0918 24.259 16.3585 0 0 0 
626 209 2 9.97876 24.9878 17.0338 0 0 0 
627 209 2 9.31782 23.6285 16.4159 0 0 0 
628 210 1 18.7801 10.8356 8.28276 0 0 0 
629 210 2 19.3733 10.7101 7.48756 0 0 0 
630 210 2 19.1962 11.4959 8.90802 0 0 0 
631 211 1 75.577 22.6993 4.65696 -1 0 1 
632 211 2 75.1205 23.5481 4.39022 -1 0 1 
633 211 2 75.1112 22.3049 5.44906 -1 0 1 
634 212 1 10.3431 17.5722 5.26967 0 0 1 
635 212 2 10.6208 18.0912 6.07805 0 0 1 
636 212 2 9.53065 17.993 4.86624 0 0 1 
637 213 1 17.1963 14.9084 36.2571 0 0 0 
638 213 2 17.9897 15.3007 35.7917 0 0 0 
639 213 2 16.36 15.1974 35.7912 0 0 0 
640 214 1 12.1178 33.1653 34.0552 0 0 0 
641 214 2 11.5684 33.7696 33.4781 0 0 0 
642 214 2 11.5259 32.4781 34.4765 0 0 0 
643 215 1 58.5297 19.2893 27.3476 -1 0 0 
644 215 2 59.4446 19.184 26.958 -1 0 0 
645 215 2 58.6027 19.4451 28.3327 -1 0 0 
646 216 1 81.7572 32.2051 3.50185 -1 0 1 
647 216 2 82.2077 32.7808 4.18426 -1 0 1 
648 216 2 82.1319 31.2791 3.54728 -1 0 1 
649 217 1 6.65778 17.1277 39.8632 0 0 -1 
650 217 2 6.91304 16.2016 39.5854 0 0 -1 
651 217 2 6.21151 17.5938 39.0993 0 0 -1 
652 218 1 8.3193 27.7056 9.57124 0 0 0 
653 218 2 9.04392 28.3847 9.45383 0 0 0 
654 218 2 7.57156 28.1045 10.1021 0 0 0 
655 219 1 19.6833 15.3375 8.09477 0 0 0 
656 219 2 19.7596 14.8549 8.96726 0 0 0 
657 219 2 20.3457 14.9616 7.44683 0 0 0 
658 220 1 19.5766 11.7772 15.4074 0 0 0 
659 220 2 19.7935 12.7129 15.1292 0 0 0 
660 220 2 18.7915 11.787 16.0266 0 0 0 
661 221 1 4.9171 26.5749 21.3816 0 0 0 
662 221 2 4.51402 26.4379 20.4768 0 0 0 
663 221 2 83.578 26.0722 22.0631 -1 0 0 
664 222 1 9.09292 5.53849 31.6726 0 1 0 
665 222 2 8.22789 5.20233 31.3002 0 1 0 
666 222 2 9.47927 6.22199 31.0533 0 1 0 
667 223 1 75.0615 36.586 14.707 -1 0 0 
668 223 2 74.2729 36.1324 15.1221 -1 0 0 
669 223 2 75.7241 35.8979 14.4109 -1 0 0 
670 224 1 12.2361 31.0676 24.1152 0 0 0 
671 224 2 12.7079 30.7157 24.9236 0 0 0 
672 224 2 12.5309 32.0069 23.9397 0 0 0 
673 225 1 8.06423 6.14119 9.0295 0 0 0 
674 225 2 7.16904 6.04691 9.46509 0 0 0 
675 225 2 8.7102 6.54266 9.67876 0 0 0 
676 226 1 75.9646 6.74336 30.0421 -1 1 0 
677 226 2 75.3958 6.5503 30.8416 -1 1 0 
678 226 2 76.6994 7.3709 30.2995 -1 1 0 
679 227 1 12.5779 15.0662 20.4495 0 0 0 
680 227 2 13.299 15.0877 19.7571 0 0 0 
681 227 2 12.6302 15.8919 21.0111 0 0 0 
682 228 1 82.2602 13.2739 31.7388 -1 0 0 
683 228 2 82.9328 13.0467 31.0346 -1 0 0 
684 228 2 81.5849 13.9081 31.3624 -1 0 0 
685 229 1 78.0699 3.71662 2.19261 -1 1 0 
686 229 2 78.1656 3.67111 3.18698 -1 1 0 
687 229 2 78.9569 3.54463 39.5607 -1 1 -1 
688 230 1 28.7181 16.4635 30.2774 0 0 0 
689 230 2 27.8519 16.8242 29.9316 0 0 0 
690 230 2 29.0474 17.0441 31.0221 0 0 0 
691 231 1 75.992 28.416 21.2045 -1 0 0 
692 231 2 75.9805 27.7374 20.47 -1 0 0 
693 231 2 76.8733 28.382 21.6758 -1 0 0 
694 232 1 83.4659 29.0044 7.91044 -1 0 0 
695 232 2 4.9009 28.2566 7.69437 0 0 0 
696 232 2 83.5709 29.7337 7.2343 -1 0 0 
697 233 1 7.56779 14.3913 20.5024 0 0 0 
698 233 2 7.43875 14.2474 21.4835 0 0 0 
699 233 2 8.38897 13.9075 20.1997 0 0 0 
700 234 1 5.49025 36.4018 37.3199 0 0 0 
701 234 2 5.65043 36.8251 38.2117 0 0 0 
702 234 2 4.60662 35.9337 37.3271 0 0 0 
703 235 1 82.1668 22.5033 13.976 -1 0 0 
704 235 2 82.8028 22.5087 14.7476 -1 0 0 
705 235 2 81.5522 21.7185 14.0561 -1 0 0 
706 236 1 74.1304 3.73546 38.8399 -1 1 -1 
707 236 2 73.4905 3.94485 39.5793 -1 1 -1 
708 236 2 74.9572 4.28742 38.9484 -1 1 -1 
709 237 1 27.6761 29.7001 22.3052 0 0 0 
710 237 2 27.2472 30.3315 21.6593 0 0 0 
711 237 2 27.3604 28.7693 22.121 0 0 0 
712 238 1 69.0709 16.8967 5.9008 -1 0 1 
713 238 2 68.6781 17.6233 6.46451 -1 0 1 
714 238 2 68.3348 16.3652 5.48168 -1 0 1 
715 239 1 83.5525 17.2952 36.098 -1 0 0 
716 239 2 4.90012 17.7676 36.7943 0 0 0 
717 239 2 83.0456 17.9664 35.5572 -1 0 0 
718 240 1 17.0099 10.4325 25.136 0 0 0 
719 240 2 17.378 10.8981 25.9408 0 0 0 
720 240 2 17.4904 10.7499 24.3184 0 0 0 
721 241 1 5.93901 7.66094 2.33722 0 1 0 
722 241 2 5.71085 7.35273 39.2102 0 1 -1 
723 241 2 5.14591 7.54043 2.93426 0 1 0 
724 242 1 14.8472 17.1972 27.5272 0 0 -1 
725 242 2 15.6235 17.5858 27.0308 0 0 -1 
726 242 2 14.1914 16.8167 26.8752 0 0 -1 
727 243 1 13.7208 28.6369 22.0625 0 0 0 
728 243 2 13.7677 28.4724 23.0478 0 0 0 
729 243 2 13.1189 29.415 21.8828 0 0 0 
730 244 1 26.839 16.8724 7.12424 0 0 0 
731 244 2 26.5307 17.5885 7.75047 0 0 0 
732 244 2 27.7754 17.066 6.83163 0 0 0 