ITEM: TIMESTEP
1500
ITEM: NUMBER OF ATOMS
8521
ITEM: BOX BOUNDS pp pp pp
0.305755 97.6942
0.149758 47.8502
0.149758 47.8502
ITEM: ATOMS id mol type x y z ix iy iz 
1 1 1 6.33818 11.4231 8.72731 0 0 0 
2 1 2 5.56303 10.8266 8.51911 0 0 0 
3 1 2 6.25001 12.276 8.21284 0 0 0 
4 2 1 1.99645 7.69269 12.2848 0 0 0 
5 2 2 2.87521 7.40947 11.9007 0 0 0 
6 2 2 2.10052 8.57813 12.7378 0 0 0 
7 3 1 4.34298 6.87074 10.8428 0 0 0 
8 3 2 5.29509 7.1208 11.0188 0 0 0 
9 3 2 4.25454 6.53405 9.9054 0 0 0 
10 4 1 8.99505 7.93165 14.9806 0 0 0 
11 4 2 8.27126 7.9978 15.6675 0 0 0 
12 4 2 9.75236 7.39009 15.3456 0 0 0 
13 5 1 7.18676 7.97281 17.2312 0 0 0 
14 5 2 6.6913 8.84038 17.1883 0 0 0 
15 5 2 7.97434 8.06852 17.8399 0 0 0 
16 6 1 6.16923 3.63201 21.8374 0 0 0 
17 6 2 5.49979 3.90357 21.146 0 0 0 
18 6 2 6.98777 4.19975 21.7499 0 0 0 
19 7 1 5.67426 8.47226 29.9638 0 0 0 
20 7 2 6.16114 7.91755 29.2891 0 0 0 
21 7 2 4.79852 8.7683 29.5824 0 0 0 
22 8 1 1.45121 7.76115 31.273 0 0 0 
23 8 2 1.98901 8.28527 30.6126 0 0 0 
24 8 2 1.95872 7.6859 32.1313 0 0 0 
25 9 1 8.06679 5.85607 35.3451 0 0 0 
26 9 2 8.58806 5.06162 35.6567 0 0 0 
27 9 2 8.69364 6.54189 34.9754 0 0 0 
28 10 1 7.25509 7.9235 37.0663 0 0 0 
29 10 2 7.0846 7.16823 36.4334 0 0 0 
30 10 2 7.7724 8.64007 36.5984 0 0 0 
31 11 1 7.72418 9.47504 44.6566 0 0 0 
32 11 2 8.33001 10.1708 44.2707 0 0 0 
33 11 2 6.98313 9.28421 44.0129 0 0 0 
34 12 1 4.23554 9.62732 7.37395 0 0 0 
35 12 2 3.63021 9.94031 6.6421 0 0 0 
36 12 2 4.3621 8.63801 7.3016 0 0 0 
37 13 1 8.37651 9.831 8.61599 0 0 0 
38 13 2 8.01577 8.90002 8.56003 0 0 0 
39 13 2 7.62409 10.4852 8.5392 0 0 0 
40 14 1 3.60547 11.4893 13.7507 0 0 0 
41 14 2 3.43498 10.5041 13.7627 0 0 0 
42 14 2 4.33738 11.6931 13.1005 0 0 0 
43 15 1 4.8021 12.0309 16.1267 0 0 0 
44 15 2 4.49082 11.8206 15.2 0 0 0 
45 15 2 4.38926 12.8896 16.4302 0 0 0 
46 16 1 6.08225 10.5498 18.1249 0 0 0 
47 16 2 6.19332 11.1387 18.9255 0 0 0 
48 16 2 5.46576 10.9887 17.4713 0 0 0 
49 17 1 1.49959 10.824 27.2378 0 0 0 
50 17 2 1.02312 11.1451 28.0563 0 0 0 
51 17 2 0.844921 10.7244 26.4885 0 0 0 
52 18 1 3.38056 9.49596 29.3002 0 0 0 
53 18 2 3.8706 10.3552 29.4471 0 0 0 
54 18 2 2.75304 9.59787 28.5283 0 0 0 
55 19 1 7.67022 10.0263 29.4722 0 0 0 
56 19 2 6.85823 9.44468 29.5208 0 0 0 
57 19 2 7.79657 10.496 30.3459 0 0 0 
58 20 1 5.9564 9.76993 41.4933 0 0 0 
59 20 2 5.22345 9.14396 41.227 0 0 0 
60 20 2 6.68315 9.74346 40.8069 0 0 0 
61 21 1 4.84171 8.78605 38.8722 0 0 0 
62 21 2 5.55641 8.2182 38.4638 0 0 0 
63 21 2 3.94603 8.38742 38.6751 0 0 0 
64 22 1 9.09442 7.31825 45.043 0 0 0 
65 22 2 8.48251 6.68058 45.5109 0 0 0 
66 22 2 8.64684 8.20849 44.9585 0 0 0 
67 23 1 6.51632 13.5412 6.38311 0 0 0 
68 23 2 6.32604 14.3032 5.76411 0 0 0 
69 23 2 7.19505 12.9357 5.96757 0 0 0 
70 24 1 8.79434 12.0275 6.03615 0 0 0 
71 24 2 8.7042 11.3334 6.75035 0 0 0 
72 24 2 9.73562 12.0382 5.69869 0 0 0 
73 25 1 7.07077 14.0891 12.7133 0 0 0 
74 25 2 7.89145 13.9328 12.1637 0 0 0 
75 25 2 6.42193 14.6443 12.193 0 0 0 
76 26 1 7.59954 14.693 17.5298 0 0 0 
77 26 2 7.93514 15.5478 17.9255 0 0 0 
78 26 2 6.78617 14.392 18.0276 0 0 0 
79 27 1 96.6064 10.7743 22.4532 -1 0 0 
80 27 2 97.3277 10.6831 23.1398 -1 0 0 
81 27 2 95.7231 10.8808 22.9098 -1 0 0 
82 28 1 7.11935 12.0441 24.002 0 0 0 
83 28 2 6.30033 11.7832 24.513 0 0 0 
84 28 2 7.87035 12.2139 24.64 0 0 0 
85 29 1 5.22015 11.6413 29.4253 0 0 0 
86 29 2 6.13521 11.4037 29.0995 0 0 0 
87 29 2 5.29475 12.2725 30.1973 0 0 0 
88 30 1 6.38618 12.8833 32.096 0 0 0 
89 30 2 6.6175 12.8485 33.0683 0 0 0 
90 30 2 6.1713 13.8252 31.838 0 0 0 
91 31 1 6.87608 13.1058 34.8418 0 0 0 
92 31 2 6.90551 14.1016 34.928 0 0 0 
93 31 2 6.64083 12.7015 35.7256 0 0 0 
94 32 1 6.90113 14.2108 37.8899 0 0 0 
95 32 2 7.79843 14.0254 38.2905 0 0 0 
96 32 2 6.18588 13.923 38.5268 0 0 0 
97 33 1 97.3244 16.0017 42.9499 -1 0 0 
98 33 2 0.868219 15.8652 43.2848 0 0 0 
99 33 2 96.6738 15.7858 43.678 -1 0 0 
100 34 1 5.15602 18.3927 4.56886 0 0 0 
101 34 2 4.30127 18.9063 4.4943 0 0 0 
102 34 2 5.66714 18.7103 5.36754 0 0 0 
103 35 1 5.33882 15.3218 10.9494 0 0 0 
104 35 2 4.45999 15.0102 11.3108 0 0 0 
105 35 2 5.45766 16.2934 11.1538 0 0 0 
106 36 1 5.45924 17.137 13.0784 0 0 0 
107 36 2 4.55101 17.3663 13.4284 0 0 0 
108 36 2 5.96402 16.6234 13.7722 0 0 0 
109 37 1 5.02098 14.5718 19.2509 0 0 0 
110 37 2 5.42202 15.3061 19.7986 0 0 0 
111 37 2 4.29907 14.1207 19.7757 0 0 0 
112 38 1 8.14968 13.7013 21.9782 0 0 0 
113 38 2 8.96303 14.0566 22.4389 0 0 0 
114 38 2 7.77585 12.9372 22.5039 0 0 0 
115 39 1 7.02363 17.3039 26.518 0 0 0 
116 39 2 7.73696 16.6031 26.5072 0 0 0 
117 39 2 7.11886 17.8638 27.3411 0 0 0 
118 40 1 5.61965 18.1288 30.1213 0 0 0 
119 40 2 6.29936 17.9374 29.4133 0 0 0 
120 40 2 5.75523 19.0555 30.4717 0 0 0 
121 41 1 4.95544 15.2518 31.4194 0 0 0 
122 41 2 5.1511 16.1063 30.9382 0 0 0 
123 41 2 4.3875 14.6662 30.8412 0 0 0 
124 42 1 10.1297 19.9651 32.7931 0 0 0 
125 42 2 9.76618 19.7224 33.6925 0 0 0 
126 42 2 9.86493 20.9029 32.5686 0 0 0 
127 43 1 6.23691 16.9293 37.3348 0 0 0 
128 43 2 5.62038 16.8463 36.5519 0 0 0 
129 43 2 6.57439 16.0235 37.5908 0 0 0 
130 44 1 2.39629 15.5599 44.1226 0 0 0 
131 44 2 2.65008 16.488 44.3949 0 0 0 
132 44 2 3.21856 14.9942 44.0602 0 0 0 
133 45 1 8.60267 17.4972 7.51536 0 0 0 
134 45 2 9.46571 17.6385 8.0003 0 0 0 
135 45 2 8.14551 16.6852 7.87834 0 0 0 
136 46 1 5.33518 20.0703 12.765 0 0 0 
137 46 2 5.72374 19.1607 12.6179 0 0 0 
138 46 2 5.7169 20.708 12.096 0 0 0 
139 47 1 2.53055 18.7574 12.5521 0 0 0 
140 47 2 2.41782 18.8142 13.5441 0 0 0 
141 47 2 3.36856 19.2328 12.2841 0 0 0 
142 48 1 5.34337 20.0056 15.4804 0 0 0 
143 48 2 5.0825 20.1839 14.5317 0 0 0 
144 48 2 4.97567 19.1208 15.7666 0 0 0 
145 49 1 6.73947 15.7458 21.188 0 0 0 
146 49 2 7.30301 14.9493 21.407 0 0 0 
147 49 2 6.68914 16.3478 21.9849 0 0 0 
148 50 1 6.84939 17.1445 23.6892 0 0 0 
149 50 2 7.49645 17.8684 23.4499 0 0 0 
150 50 2 6.60493 17.2221 24.6558 0 0 0 
151 51 1 6.39651 20.9724 30.5735 0 0 0 
152 51 2 5.67212 21.5944 30.2763 0 0 0 
153 51 2 7.10795 21.4914 31.0473 0 0 0 
154 52 1 8.35777 22.6274 31.3821 0 0 0 
155 52 2 9.20456 22.9969 31.7647 0 0 0 
156 52 2 7.94293 23.305 30.7748 0 0 0 
157 53 1 6.96328 19.5736 37.6457 0 0 0 
158 53 2 6.75561 18.6012 37.5398 0 0 0 
159 53 2 7.10391 19.7809 38.6139 0 0 0 
160 54 1 5.30417 17.3698 39.9277 0 0 0 
161 54 2 5.97029 17.0077 40.5797 0 0 0 
162 54 2 5.56104 17.0946 39.0012 0 0 0 
163 55 1 5.28087 19.6699 42.4183 0 0 0 
164 55 2 6.01782 20.345 42.3838 0 0 0 
165 55 2 5.08664 19.341 41.4941 0 0 0 
166 56 1 6.61488 24.0737 5.76381 0 0 0 
167 56 2 7.24332 24.1748 4.99255 0 0 0 
168 56 2 6.4809 24.962 6.20317 0 0 0 
169 57 1 3.48518 26.6953 14.0831 0 0 0 
170 57 2 4.0155 25.8607 13.9347 0 0 0 
171 57 2 2.54269 26.4546 14.315 0 0 0 
172 58 1 5.89483 23.9475 14.8103 0 0 0 
173 58 2 6.8565 24.0418 14.5528 0 0 0 
174 58 2 5.67608 22.9795 14.9334 0 0 0 
175 59 1 8.6792 26.0092 17.2213 0 0 0 
176 59 2 8.74198 25.1643 16.69 0 0 0 
177 59 2 8.92941 25.8246 18.1718 0 0 0 
178 60 1 6.28136 23.5967 20.0397 0 0 0 
179 60 2 6.42454 23.0055 19.246 0 0 0 
180 60 2 5.42198 23.3507 20.4879 0 0 0 
181 61 1 8.27637 24.7411 22.6951 0 0 0 
182 61 2 7.93138 25.2235 21.89 0 0 0 
183 61 2 9.13548 24.2831 22.4666 0 0 0 
184 62 1 4.17856 25.4863 29.613 0 0 0 
185 62 2 4.54026 25.8065 28.7374 0 0 0 
186 62 2 4.13591 26.2511 30.2558 0 0 0 
187 63 1 6.89975 25.1024 30.4026 0 0 0 
188 63 2 5.92797 24.9033 30.2761 0 0 0 
189 63 2 7.0034 25.8657 31.0402 0 0 0 
190 64 1 6.77975 22.2177 36.6906 0 0 0 
191 64 2 7.48909 22.1357 35.9905 0 0 0 
192 64 2 6.79344 21.4068 37.2755 0 0 0 
193 65 1 7.16869 24.3692 38.3758 0 0 0 
194 65 2 7.05895 25.1138 37.7174 0 0 0 
195 65 2 6.8618 23.5116 37.9633 0 0 0 
196 66 1 3.73759 18.1213 44.6036 0 0 0 
197 66 2 4.34587 18.5676 43.9472 0 0 0 
198 66 2 3.3818 18.8016 45.2443 0 0 0 
199 67 1 8.61396 28.9523 7.19275 0 0 0 
200 67 2 7.99853 29.7405 7.18652 0 0 0 
201 67 2 8.07642 28.1095 7.16673 0 0 0 
202 68 1 6.5907 26.7494 7.47268 0 0 0 
203 68 2 6.83634 26.5733 8.42589 0 0 0 
204 68 2 5.8804 27.4524 7.43596 0 0 0 
205 69 1 5.23824 28.8366 14.3462 0 0 0 
206 69 2 4.40707 28.3016 14.1947 0 0 0 
207 69 2 5.87924 28.3065 14.9013 0 0 0 
208 70 1 6.32594 26.6523 15.4454 0 0 0 
209 70 2 5.91929 25.7458 15.3316 0 0 0 
210 70 2 6.80121 26.6965 16.3241 0 0 0 
211 71 1 8.11266 26.1013 20.1643 0 0 0 
212 71 2 7.94092 26.909 19.6004 0 0 0 
213 71 2 7.34977 25.4615 20.0713 0 0 0 
214 72 1 8.96525 29.5288 21.8595 0 0 0 
215 72 2 8.60574 29.3039 20.9539 0 0 0 
216 72 2 8.86499 30.5101 22.0237 0 0 0 
217 73 1 4.43047 27.8964 31.0032 0 0 0 
218 73 2 5.4062 27.8553 31.2182 0 0 0 
219 73 2 3.98606 28.5666 31.5975 0 0 0 
220 74 1 6.99458 26.6988 32.7652 0 0 0 
221 74 2 6.91413 27.634 33.1099 0 0 0 
222 74 2 7.53247 26.1521 33.4069 0 0 0 
223 75 1 6.79754 26.4337 36.0775 0 0 0 
224 75 2 5.85876 26.5081 35.7411 0 0 0 
225 75 2 7.28244 25.7292 35.5593 0 0 0 
226 76 1 7.08203 29.2374 39.4648 0 0 0 
227 76 2 7.62652 28.8973 38.6981 0 0 0 
228 76 2 6.13816 28.9211 39.3695 0 0 0 
229 77 1 9.51779 29.1879 40.6194 0 0 0 
230 77 2 9.92204 28.4878 40.0309 0 0 0 
231 77 2 8.5948 29.4006 40.2988 0 0 0 
232 78 1 6.08766 34.9775 7.07401 0 0 0 
233 78 2 6.91869 34.4488 6.90137 0 0 0 
234 78 2 6.07028 35.7767 6.47323 0 0 0 
235 79 1 4.58069 35.2393 9.43436 0 0 0 
236 79 2 5.00747 34.9634 8.57313 0 0 0 
237 79 2 4.05563 34.4739 9.80641 0 0 0 
238 80 1 2.97215 33.2638 11.185 0 0 0 
239 80 2 2.02486 33.4542 11.4427 0 0 0 
240 80 2 3.38053 32.6415 11.8528 0 0 0 
241 81 1 7.72352 30.4717 14.1344 0 0 0 
242 81 2 6.7469 30.2573 14.1194 0 0 0 
243 81 2 7.84637 31.4614 14.2077 0 0 0 
244 82 1 6.00603 32.4525 24.193 0 0 0 
245 82 2 6.79962 32.9948 24.4688 0 0 0 
246 82 2 6.31218 31.5648 23.8491 0 0 0 
247 83 1 7.84099 34.099 25.6884 0 0 0 
248 83 2 8.3231 34.5313 26.4504 0 0 0 
249 83 2 7.15338 34.7295 25.3283 0 0 0 
250 84 1 5.95863 34.2628 28.1955 0 0 0 
251 84 2 5.25215 33.6205 27.8983 0 0 0 
252 84 2 5.52964 35.1149 28.4951 0 0 0 
253 85 1 6.6232 29.0499 34.2236 0 0 0 
254 85 2 6.61659 28.5714 35.1017 0 0 0 
255 85 2 7.25306 29.8252 34.2713 0 0 0 
256 86 1 4.17484 26.108 34.619 0 0 0 
257 86 2 4.71069 25.2835 34.4373 0 0 0 
258 86 2 3.58541 26.302 33.8349 0 0 0 
259 87 1 4.92409 36.4048 40.1287 0 0 0 
260 87 2 4.81732 36.9948 40.9291 0 0 0 
261 87 2 4.86846 35.447 40.4108 0 0 0 
262 88 1 7.14191 31.5273 43.2174 0 0 0 
263 88 2 6.74493 31.8544 42.3598 0 0 0 
264 88 2 8.12471 31.7119 43.2215 0 0 0 
265 89 1 5.16995 37.5624 10.658 0 0 0 
266 89 2 5.22299 36.6026 10.3825 0 0 0 
267 89 2 5.75381 37.7129 11.4558 0 0 0 
268 90 1 3.01535 38.0296 9.14571 0 0 0 
269 90 2 2.69236 37.1013 8.96171 0 0 0 
270 90 2 3.8666 37.9888 9.66888 0 0 0 
271 91 1 6.51835 35.1705 12.6931 0 0 0 
272 91 2 5.66106 35.2712 12.1882 0 0 0 
273 91 2 6.67047 35.9822 13.2569 0 0 0 
274 92 1 6.22252 37.9254 13.442 0 0 0 
275 92 2 7.0578 38.41 13.7016 0 0 0 
276 92 2 5.45683 38.5682 13.4215 0 0 0 
277 93 1 4.53583 34.4611 23.3678 0 0 0 
278 93 2 5.06323 33.6752 23.6906 0 0 0 
279 93 2 3.96878 34.1858 22.5915 0 0 0 
280 94 1 5.64027 35.8948 25.4417 0 0 0 
281 94 2 4.9301 35.3472 24.9992 0 0 0 
282 94 2 5.54033 35.8307 26.4346 0 0 0 
283 95 1 5.50953 39.1104 27.5793 0 0 0 
284 95 2 5.99312 39.1029 26.704 0 0 0 
285 95 2 6.01431 39.6728 28.2342 0 0 0 
286 96 1 4.41503 36.5125 28.595 0 0 0 
287 96 2 4.10772 36.6591 29.5352 0 0 0 
288 96 2 4.77055 37.37 28.223 0 0 0 
289 97 1 6.27939 37.3472 32.5069 0 0 0 
290 97 2 7.24418 37.4798 32.2797 0 0 0 
291 97 2 5.95877 38.1155 33.0608 0 0 0 
292 98 1 4.47792 37.5408 42.8034 0 0 0 
293 98 2 4.70858 38.4948 42.9948 0 0 0 
294 98 2 4.72117 36.9746 43.5909 0 0 0 
295 99 1 5.44634 36.4725 45.3802 0 0 0 
296 99 2 6.27749 36.9055 45.7291 0 0 0 
297 99 2 5.46615 35.4951 45.5906 0 0 0 
298 100 1 8.53797 34.409 3.88511 0 0 0 
299 100 2 8.44967 33.5328 3.41133 0 0 0 
300 100 2 8.26642 34.2998 4.84131 0 0 0 
301 101 1 1.69581 40.2654 8.80175 0 0 0 
302 101 2 2.37107 41.0003 8.8641 0 0 0 
303 101 2 2.15738 39.3814 8.87636 0 0 0 
304 102 1 1.84224 39.5649 11.8606 0 0 0 
305 102 2 1.89193 40.2165 11.1037 0 0 0 
306 102 2 1.55382 38.6724 11.5138 0 0 0 
307 103 1 8.03585 39.763 14.0112 0 0 0 
308 103 2 8.20209 39.9571 14.978 0 0 0 
309 103 2 7.53293 40.5233 13.6003 0 0 0 
310 104 1 8.83906 37.7876 22.3698 0 0 0 
311 104 2 8.93193 38.6752 21.9187 0 0 0 
312 104 2 9.13253 37.8657 23.3226 0 0 0 
313 105 1 6.44457 41.157 24.844 0 0 0 
314 105 2 5.78559 41.5303 25.497 0 0 0 
315 105 2 6.50514 40.1658 24.9613 0 0 0 
316 106 1 6.70626 40.2271 29.8789 0 0 0 
317 106 2 5.7832 40.5764 30.0398 0 0 0 
318 106 2 6.99735 39.6806 30.6641 0 0 0 
319 107 1 4.00157 40.7504 30.2377 0 0 0 
320 107 2 3.2742 40.4615 29.6152 0 0 0 
321 107 2 3.74659 40.5219 31.1772 0 0 0 
322 108 1 9.17421 37.5887 37.5028 0 0 0 
323 108 2 8.72804 37.721 36.6176 0 0 0 
324 108 2 8.69484 36.8757 38.0144 0 0 0 
325 109 1 6.56404 39.7658 40.1756 0 0 0 
326 109 2 6.19727 39.0551 39.5754 0 0 0 
327 109 2 7.21147 40.3318 39.6652 0 0 0 
328 110 1 5.46979 33.7576 45.7212 0 0 0 
329 110 2 5.27688 33.3503 46.6139 0 0 0 
330 110 2 5.93848 33.0889 45.144 0 0 0 
331 111 1 6.93415 42.1683 4.91309 0 0 0 
332 111 2 6.18898 41.8506 4.32679 0 0 0 
333 111 2 7.23954 41.4184 5.49987 0 0 0 
334 112 1 7.94774 41.2337 8.18884 0 0 0 
335 112 2 7.93237 41.1892 9.18773 0 0 0 
336 112 2 7.83537 42.1831 7.89576 0 0 0 
337 113 1 4.1639 39.76 13.3761 0 0 0 
338 113 2 3.40849 39.5175 12.7674 0 0 0 
339 113 2 3.801 40.1908 14.2024 0 0 0 
340 114 1 6.38697 41.2392 12.6899 0 0 0 
341 114 2 6.17876 42.2135 12.6037 0 0 0 
342 114 2 5.53537 40.7151 12.6889 0 0 0 
343 115 1 9.1184 40.6991 20.8411 0 0 0 
344 115 2 8.26109 41.0224 21.2417 0 0 0 
345 115 2 9.16338 40.9767 19.8814 0 0 0 
346 116 1 6.32007 41.6083 22.0192 0 0 0 
347 116 2 6.3475 41.7294 23.0115 0 0 0 
348 116 2 5.44342 41.2051 21.7568 0 0 0 
349 117 1 10.5706 43.5781 29.6852 0 0 0 
350 117 2 9.95685 44.2693 29.3038 0 0 0 
351 117 2 10.3552 42.6858 29.2886 0 0 0 
352 118 1 4.09953 40.0948 32.9737 0 0 0 
353 118 2 3.73096 39.8385 33.8673 0 0 0 
354 118 2 5.03171 40.4396 33.0841 0 0 0 
355 119 1 6.74063 40.1799 33.9174 0 0 0 
356 119 2 6.45352 40.3398 34.8618 0 0 0 
357 119 2 7.73262 40.0574 33.8867 0 0 0 
358 120 1 5.84368 39.6116 36.4705 0 0 0 
359 120 2 5.87115 38.6431 36.7181 0 0 0 
360 120 2 6.40614 40.1353 37.1103 0 0 0 
361 121 1 5.297 40.6184 42.3686 0 0 0 
362 121 2 5.77163 40.2353 41.5762 0 0 0 
363 121 2 4.53415 41.1855 42.0582 0 0 0 
364 122 1 9.9526 7.53926 7.92064 0 0 0 
365 122 2 10.8821 7.40438 7.57742 0 0 0 
366 122 2 9.66976 8.48393 7.75453 0 0 0 
367 123 1 7.25089 6.31177 7.65246 0 0 0 
368 123 2 6.78716 6.42015 6.77314 0 0 0 
369 123 2 8.22973 6.48002 7.53604 0 0 0 
370 124 1 8.13387 8.81417 12.4125 0 0 0 
371 124 2 8.08869 8.56826 13.3807 0 0 0 
372 124 2 8.96181 8.42553 12.0082 0 0 0 
373 125 1 10.747 6.19878 16.2498 0 0 0 
374 125 2 10.5539 5.26767 16.5592 0 0 0 
375 125 2 11.0669 6.17565 15.3026 0 0 0 
376 126 1 12.7381 4.29903 17.1961 0 0 0 
377 126 2 13.1666 3.52288 17.6587 0 0 0 
378 126 2 13.1835 5.1465 17.485 0 0 0 
379 127 1 8.31569 9.73903 23.0629 0 0 0 
380 127 2 7.80264 9.45934 22.2514 0 0 0 
381 127 2 8.04931 10.6674 23.3221 0 0 0 
382 128 1 7.06824 7.41303 27.9791 0 0 0 
383 128 2 7.97702 7.20008 28.3379 0 0 0 
384 128 2 7.14469 7.69104 27.0215 0 0 0 
385 129 1 11.836 5.58317 29.1838 0 0 0 
386 129 2 12.6371 5.73914 28.6059 0 0 0 
387 129 2 11.8069 6.27354 29.9066 0 0 0 
388 130 1 9.61837 7.973 34.7353 0 0 0 
389 130 2 9.90133 8.75023 35.2973 0 0 0 
390 130 2 9.85847 8.14725 33.7803 0 0 0 
391 131 1 8.20615 9.31008 39.1076 0 0 0 
392 131 2 9.15593 9.02915 38.9698 0 0 0 
393 131 2 7.61181 8.78653 38.4972 0 0 0 
394 132 1 11.2624 7.61782 43.2032 0 0 0 
395 132 2 10.7697 8.27109 42.6282 0 0 0 
396 132 2 10.6305 7.21269 43.864 0 0 0 
397 133 1 5.80628 5.47936 5.08342 0 0 0 
398 133 2 5.91511 5.14945 4.14571 0 0 0 
399 133 2 5.61163 4.70698 5.68802 0 0 0 
400 134 1 6.87997 7.35324 10.0727 0 0 0 
401 134 2 6.88562 6.74369 9.27997 0 0 0 
402 134 2 7.81339 7.46558 10.4134 0 0 0 
403 135 1 9.1025 11.1264 10.9806 0 0 0 
404 135 2 8.45494 10.7021 11.6136 0 0 0 
405 135 2 9.02377 10.6929 10.0829 0 0 0 
406 136 1 9.74533 7.98618 18.4942 0 0 0 
407 136 2 10.5292 8.40743 18.9503 0 0 0 
408 136 2 10.0688 7.37732 17.7698 0 0 0 
409 137 1 7.53173 8.88833 20.3744 0 0 0 
410 137 2 6.82203 8.2563 20.0632 0 0 0 
411 137 2 8.33161 8.81054 19.7793 0 0 0 
412 138 1 9.64021 12.0745 28.9493 0 0 0 
413 138 2 10.6202 12.053 29.1471 0 0 0 
414 138 2 9.23791 11.1837 29.1604 0 0 0 
415 139 1 10.2518 9.83849 25.3333 0 0 0 
416 139 2 9.83346 10.6606 25.7194 0 0 0 
417 139 2 9.71582 9.52924 24.5477 0 0 0 
418 140 1 9.40997 8.27526 31.8547 0 0 0 
419 140 2 9.37098 7.89601 30.9303 0 0 0 
420 140 2 8.62276 8.87387 32.0029 0 0 0 
421 141 1 10.1904 10.381 36.1835 0 0 0 
422 141 2 10.3931 10.0206 37.094 0 0 0 
423 141 2 11.0205 10.7742 35.7882 0 0 0 
424 142 1 5.67195 12.3236 42.2127 0 0 0 
425 142 2 5.45951 12.3814 43.1881 0 0 0 
426 142 2 5.55175 11.3812 41.9006 0 0 0 
427 143 1 9.26149 9.52475 41.8666 0 0 0 
428 143 2 9.87933 10.1162 41.3484 0 0 0 
429 143 2 8.64189 9.0565 41.2366 0 0 0 
430 144 1 5.81227 15.7766 4.79729 0 0 0 
431 144 2 6.45667 15.8088 4.03329 0 0 0 
432 144 2 5.37783 16.6709 4.90476 0 0 0 
433 145 1 9.05951 13.8826 10.7077 0 0 0 
434 145 2 9.12374 12.9288 11.0011 0 0 0 
435 145 2 8.31688 13.9782 10.0448 0 0 0 
436 146 1 5.86309 11.6162 11.5884 0 0 0 
437 146 2 6.46857 12.316 11.9674 0 0 0 
438 146 2 6.01272 11.5446 10.6023 0 0 0 
439 147 1 6.05235 15.35 15.202 0 0 0 
440 147 2 6.25043 14.7637 14.4166 0 0 0 
441 147 2 6.61397 15.0668 15.9794 0 0 0 
442 148 1 10.6184 10.9024 20.8646 0 0 0 
443 148 2 10.8393 11.2646 21.7701 0 0 0 
444 148 2 9.9961 10.1254 20.9591 0 0 0 
445 149 1 8.85268 12.0694 26.3209 0 0 0 
446 149 2 9.03195 11.9798 27.3006 0 0 0 
447 149 2 9.30668 12.8895 25.9726 0 0 0 
448 150 1 12.4672 13.2382 28.911 0 0 0 
449 150 2 12.6712 12.5563 28.2086 0 0 0 
450 150 2 12.1784 14.0903 28.4744 0 0 0 
451 151 1 6.80307 10.1268 32.2924 0 0 0 
452 151 2 6.55102 11.0872 32.1738 0 0 0 
453 151 2 6.07985 9.54419 31.9215 0 0 0 
454 152 1 10.6581 13.6388 35.2528 0 0 0 
455 152 2 11.4226 13.0005 35.3426 0 0 0 
456 152 2 9.79609 13.133 35.2836 0 0 0 
457 153 1 10.8952 11.4409 40.6401 0 0 0 
458 153 2 11.749 11.8385 40.9762 0 0 0 
459 153 2 10.4133 12.1129 40.0778 0 0 0 
460 154 1 8.45322 12.5627 42.4929 0 0 0 
461 154 2 8.79835 11.6879 42.1529 0 0 0 
462 154 2 7.45497 12.5725 42.4347 0 0 0 
463 155 1 12.8514 15.45 6.94516 0 0 0 
464 155 2 12.1329 15.5552 6.2577 0 0 0 
465 155 2 12.4449 15.1547 7.80976 0 0 0 
466 156 1 7.50371 14.7546 8.82508 0 0 0 
467 156 2 7.42456 14.313 7.93136 0 0 0 
468 156 2 6.59675 15.0339 9.14031 0 0 0 
469 157 1 9.92673 19.6337 15.4426 0 0 0 
470 157 2 9.83175 18.9146 14.7542 0 0 0 
471 157 2 9.13601 19.6159 16.0545 0 0 0 
472 158 1 4.34338 17.461 15.9666 0 0 0 
473 158 2 3.84283 17.1862 16.7875 0 0 0 
474 158 2 4.92685 16.7073 15.6641 0 0 0 
475 159 1 9.95577 13.419 19.0783 0 0 0 
476 159 2 8.98959 13.6287 18.9283 0 0 0 
477 159 2 10.0415 12.5006 19.4645 0 0 0 
478 160 1 9.30828 15.4987 27.6061 0 0 0 
479 160 2 9.09445 16.0917 28.3824 0 0 0 
480 160 2 9.19584 14.5425 27.8763 0 0 0 
481 161 1 13.0432 23.1867 31.4987 0 0 0 
482 161 2 13.989 22.9068 31.3343 0 0 0 
483 161 2 12.423 22.5558 31.0325 0 0 0 
484 162 1 11.7658 17.65 33.1322 0 0 0 
485 162 2 12.628 17.8195 32.6549 0 0 0 
486 162 2 11.0523 18.2373 32.7501 0 0 0 
487 163 1 11.138 16.757 35.6366 0 0 0 
488 163 2 10.7477 15.8405 35.5491 0 0 0 
489 163 2 11.3911 17.0993 34.7318 0 0 0 
490 164 1 4.66943 13.7188 39.688 0 0 0 
491 164 2 5.0494 13.3449 40.5341 0 0 0 
492 164 2 3.94963 14.3771 39.9082 0 0 0 
493 165 1 9.02325 13.4134 39.7328 0 0 0 
494 165 2 8.67666 13.2948 40.6633 0 0 0 
495 165 2 9.76054 14.089 39.7353 0 0 0 
496 166 1 6.46243 19.2957 6.86772 0 0 0 
497 166 2 7.1916 18.836 7.37465 0 0 0 
498 166 2 6.50073 20.2788 7.04665 0 0 0 
499 167 1 6.38923 21.8292 11.0215 0 0 0 
500 167 2 7.02882 22.57 11.2266 0 0 0 
501 167 2 6.1157 21.8813 10.0611 0 0 0 
502 168 1 10.3186 22.031 14.205 0 0 0 
503 168 2 10.2077 21.2132 14.7697 0 0 0 
504 168 2 10.6575 21.7688 13.3015 0 0 0 
505 169 1 7.62856 19.1608 16.9528 0 0 0 
506 169 2 6.95587 19.2876 16.2239 0 0 0 
507 169 2 7.47394 18.2795 17.3994 0 0 0 
508 170 1 7.77216 17.0538 18.8656 0 0 0 
509 170 2 7.43247 16.4947 19.6219 0 0 0 
510 170 2 8.30329 17.8191 19.2292 0 0 0 
511 171 1 8.9484 18.9985 23.4907 0 0 0 
512 171 2 9.21621 18.5583 24.3477 0 0 0 
513 171 2 8.67192 19.9421 23.6728 0 0 0 
514 172 1 7.93497 19.5103 28.4002 0 0 0 
515 172 2 7.46009 20.312 28.7632 0 0 0 
516 172 2 8.60308 19.8006 27.7151 0 0 0 
517 173 1 10.5666 23.1097 33.0753 0 0 0 
518 173 2 11.5031 22.9352 32.7712 0 0 0 
519 173 2 10.4673 22.8255 34.0289 0 0 0 
520 174 1 9.41543 18.967 35.4845 0 0 0 
521 174 2 8.63515 18.8282 36.0944 0 0 0 
522 174 2 10.1849 18.4091 35.7954 0 0 0 
523 175 1 8.02207 15.8659 41.2211 0 0 0 
524 175 2 8.76646 16.0451 40.5778 0 0 0 
525 175 2 8.0408 16.549 41.9511 0 0 0 
526 176 1 7.58137 20.5889 40.4565 0 0 0 
527 176 2 8.51235 20.2268 40.5022 0 0 0 
528 176 2 7.55227 21.4892 40.8908 0 0 0 
529 177 1 7.15792 21.8422 7.22986 0 0 0 
530 177 2 8.10655 21.9638 7.52193 0 0 0 
531 177 2 6.90943 22.5714 6.59229 0 0 0 
532 178 1 8.29931 24.0062 11.458 0 0 0 
533 178 2 8.42383 24.7262 12.1406 0 0 0 
534 178 2 9.12389 23.4422 11.4142 0 0 0 
535 179 1 8.63746 24.19 15.0828 0 0 0 
536 179 2 9.31988 23.5127 14.8078 0 0 0 
537 179 2 8.57211 24.9007 14.3824 0 0 0 
538 180 1 6.2317 21.4615 18.109 0 0 0 
539 180 2 5.64579 21.5687 17.3058 0 0 0 
540 180 2 6.97794 20.831 17.8955 0 0 0 
541 181 1 10.8649 25.5935 19.37 0 0 0 
542 181 2 11.0311 24.608 19.3383 0 0 0 
543 181 2 10.1183 25.7853 20.0071 0 0 0 
544 182 1 8.39352 21.538 24.1707 0 0 0 
545 182 2 8.95397 22.1816 23.6496 0 0 0 
546 182 2 7.46594 21.9006 24.2606 0 0 0 
547 183 1 10.336 24.9364 26.1742 0 0 0 
548 183 2 9.8918 25.248 27.0142 0 0 0 
549 183 2 10.0602 25.5241 25.4135 0 0 0 
550 184 1 8.87579 25.1368 34.08 0 0 0 
551 184 2 9.23248 24.2294 33.8579 0 0 0 
552 184 2 9.62883 25.7944 34.1036 0 0 0 
553 185 1 10.1202 21.7845 35.4744 0 0 0 
554 185 2 10.3886 21.9737 36.419 0 0 0 
555 185 2 9.70229 20.8775 35.422 0 0 0 
556 186 1 9.62859 24.5693 39.4737 0 0 0 
557 186 2 9.29417 24.6454 40.413 0 0 0 
558 186 2 8.85442 24.5944 38.8412 0 0 0 
559 187 1 7.65766 22.846 42.4207 0 0 0 
560 187 2 6.75144 23.0203 42.8059 0 0 0 
561 187 2 8.10843 23.7162 42.2221 0 0 0 
562 188 1 11.3965 29.0585 7.60771 0 0 0 
563 188 2 11.5614 29.9592 8.00965 0 0 0 
564 188 2 10.4117 28.8949 7.54906 0 0 0 
565 189 1 7.13387 26.2494 10.2151 0 0 0 
566 189 2 6.96815 27.1162 10.6853 0 0 0 
567 189 2 7.33375 25.5377 10.8886 0 0 0 
568 190 1 9.60439 28.8971 13.4056 0 0 0 
569 190 2 10.3564 29.4515 13.049 0 0 0 
570 190 2 8.93933 29.4901 13.8596 0 0 0 
571 191 1 8.29216 26.1538 13.0951 0 0 0 
572 191 2 7.51089 26.5005 13.6142 0 0 0 
573 191 2 8.94584 26.8949 12.9419 0 0 0 
574 192 1 8.52292 28.7636 18.7367 0 0 0 
575 192 2 8.94891 28.0806 18.1433 0 0 0 
576 192 2 8.65001 29.6736 18.3422 0 0 0 
577 193 1 9.0721 26.9985 24.2423 0 0 0 
578 193 2 9.51476 27.7005 23.6844 0 0 0 
579 193 2 8.58417 26.3591 23.6481 0 0 0 
580 194 1 9.48276 28.503 27.2212 0 0 0 
581 194 2 9.78997 28.1433 26.3402 0 0 0 
582 194 2 9.59404 27.8012 27.9248 0 0 0 
583 195 1 8.78236 30.1719 35.4035 0 0 0 
584 195 2 9.69032 30.278 34.9981 0 0 0 
585 195 2 8.83913 29.5608 36.1929 0 0 0 
586 196 1 5.76073 23.8634 34.4771 0 0 0 
587 196 2 6.60632 23.771 33.9513 0 0 0 
588 196 2 5.86663 23.4084 35.3613 0 0 0 
589 197 1 11.1077 27.0522 39.3469 0 0 0 
590 197 2 11.9469 27.1646 39.8789 0 0 0 
591 197 2 10.7483 26.1289 39.4823 0 0 0 
592 198 1 7.60046 32.1344 39.9908 0 0 0 
593 198 2 8.58823 32.0409 40.1155 0 0 0 
594 198 2 7.21704 31.2585 39.6979 0 0 0 
595 199 1 8.93471 32.1972 8.74856 0 0 0 
596 199 2 8.50626 32.929 9.27856 0 0 0 
597 199 2 8.45382 31.3371 8.91854 0 0 0 
598 200 1 6.91419 30.3659 9.63327 0 0 0 
599 200 2 7.18257 29.8722 10.4605 0 0 0 
600 200 2 5.9898 30.7298 9.74744 0 0 0 
601 201 1 7.33401 28.6402 11.8686 0 0 0 
602 201 2 8.2355 28.8574 12.2429 0 0 0 
603 201 2 6.64773 28.7056 12.593 0 0 0 
604 202 1 8.68931 32.0307 18.3078 0 0 0 
605 202 2 7.81113 32.3797 17.9806 0 0 0 
606 202 2 9.40093 32.7143 18.1454 0 0 0 
607 203 1 9.96935 32.6277 21.8928 0 0 0 
608 203 2 9.86907 32.8775 20.9297 0 0 0 
609 203 2 10.8664 32.9227 22.222 0 0 0 
610 204 1 8.60334 31.761 24.3411 0 0 0 
611 204 2 9.16243 31.964 23.5372 0 0 0 
612 204 2 8.50232 32.5878 24.8943 0 0 0 
613 205 1 10.061 31.3192 27.3071 0 0 0 
614 205 2 9.76157 30.385 27.5008 0 0 0 
615 205 2 9.59896 31.6538 26.4858 0 0 0 
616 206 1 13.1164 32.2983 34.7966 0 0 0 
617 206 2 13.1432 31.5392 35.447 0 0 0 
618 206 2 12.8889 31.9502 33.8872 0 0 0 
619 207 1 8.82365 28.1303 37.3703 0 0 0 
620 207 2 8.27867 27.393 36.971 0 0 0 
621 207 2 9.56078 27.7391 37.9212 0 0 0 
622 208 1 10.4434 34.5442 38.8014 0 0 0 
623 208 2 9.76663 35.2191 39.0954 0 0 0 
624 208 2 10.2287 33.657 39.2099 0 0 0 
625 209 1 10.1806 32.0401 40.5683 0 0 0 
626 209 2 11.1367 32.2514 40.7711 0 0 0 
627 209 2 9.85818 31.3256 41.1893 0 0 0 
628 210 1 8.55411 34.0529 6.78807 0 0 0 
629 210 2 8.69798 33.2021 7.29349 0 0 0 
630 210 2 9.03665 34.7989 7.24701 0 0 0 
631 211 1 8.84112 36.4395 10.615 0 0 0 
632 211 2 9.61128 36.3097 11.2395 0 0 0 
633 211 2 8.17753 37.0625 11.029 0 0 0 
634 212 1 8.0002 33.9433 10.3931 0 0 0 
635 212 2 7.78113 33.4811 11.2524 0 0 0 
636 212 2 8.09631 34.925 10.5577 0 0 0 
637 213 1 8.08897 32.9966 13.8533 0 0 0 
638 213 2 8.8902 33.5913 13.9199 0 0 0 
639 213 2 7.36001 33.4734 13.362 0 0 0 
640 214 1 10.9822 36.1321 21.6172 0 0 0 
641 214 2 11.823 36.6382 21.8092 0 0 0 
642 214 2 10.1975 36.6453 21.965 0 0 0 
643 215 1 6.82647 38.3569 25.2146 0 0 0 
644 215 2 7.81432 38.2651 25.0893 0 0 0 
645 215 2 6.39999 37.4533 25.1744 0 0 0 
646 216 1 8.83683 34.3601 28.7989 0 0 0 
647 216 2 7.84723 34.3481 28.9422 0 0 0 
648 216 2 9.21819 33.4655 29.0317 0 0 0 
649 217 1 4.02451 36.3441 35.2437 0 0 0 
650 217 2 4.31853 36.026 34.3424 0 0 0 
651 217 2 3.74339 37.3019 35.1837 0 0 0 
652 218 1 5.46595 37.1264 37.5092 0 0 0 
653 218 2 4.95599 36.669 36.7807 0 0 0 
654 218 2 5.20854 36.735 38.3927 0 0 0 
655 219 1 8.56543 36.1055 40.1487 0 0 0 
656 219 2 8.71219 36.8929 40.7475 0 0 0 
657 219 2 7.96821 35.4462 40.6053 0 0 0 
658 220 1 11.6712 39.3837 40.5901 0 0 0 
659 220 2 12.3699 39.8814 41.104 0 0 0 
660 220 2 10.8127 39.8959 40.6128 0 0 0 
661 221 1 7.36161 43.7429 7.21475 0 0 0 
662 221 2 7.79557 44.6342 7.08358 0 0 0 
663 221 2 7.0695 43.3809 6.32953 0 0 0 
664 222 1 10.9038 36.2112 12.2963 0 0 0 
665 222 2 11.684 36.7458 11.9716 0 0 0 
666 222 2 11.2319 35.3692 12.7246 0 0 0 
667 223 1 12.3186 40.9929 13.4384 0 0 0 
668 223 2 12.9708 40.9487 14.1951 0 0 0 
669 223 2 11.849 40.1144 13.3513 0 0 0 
670 224 1 10.605 38.6018 13.4784 0 0 0 
671 224 2 10.7158 37.9602 12.7194 0 0 0 
672 224 2 9.66069 38.93 13.5023 0 0 0 
673 225 1 8.53601 39.9069 16.6334 0 0 0 
674 225 2 9.2804 39.4479 17.1184 0 0 0 
675 225 2 7.72566 39.9372 17.2186 0 0 0 
676 226 1 9.60677 38.7904 25.9747 0 0 0 
677 226 2 9.36015 39.7546 26.0724 0 0 0 
678 226 2 10.5113 38.7187 25.5543 0 0 0 
679 227 1 9.63523 37.0743 28.0761 0 0 0 
680 227 2 9.21211 36.1875 28.2622 0 0 0 
681 227 2 9.27874 37.4399 27.2163 0 0 0 
682 228 1 8.87186 37.54 30.795 0 0 0 
683 228 2 9.00451 37.5301 29.8039 0 0 0 
684 228 2 9.62971 37.0607 31.2375 0 0 0 
685 229 1 11.3523 38.203 35.0869 0 0 0 
686 229 2 11.2793 38.2859 36.0808 0 0 0 
687 229 2 12.2681 37.8819 34.8456 0 0 0 
688 230 1 11.5739 38.6398 37.8665 0 0 0 
689 230 2 10.6646 38.3478 37.5699 0 0 0 
690 230 2 11.6507 38.5348 38.858 0 0 0 
691 231 1 9.38941 40.8325 41.6495 0 0 0 
692 231 2 8.85068 40.7921 42.491 0 0 0 
693 231 2 9.85486 41.7159 41.5939 0 0 0 
694 232 1 7.7143 39.7153 5.99904 0 0 0 
695 232 2 8.33478 38.9331 6.05607 0 0 0 
696 232 2 7.70337 40.1966 6.87547 0 0 0 
697 233 1 10.5446 41.6435 8.93188 0 0 0 
698 233 2 9.85743 41.2177 8.34323 0 0 0 
699 233 2 10.1644 41.7739 9.84754 0 0 0 
700 234 1 8.25558 41.7428 10.7736 0 0 0 
701 234 2 7.48487 41.5643 11.3853 0 0 0 
702 234 2 9.0097 42.1417 11.2952 0 0 0 
703 235 1 10.2478 38.4466 18.2811 0 0 0 
704 235 2 9.98423 37.6509 18.8264 0 0 0 
705 235 2 11.2033 38.3567 18.0004 0 0 0 
706 236 1 11.3437 42.4506 24.7262 0 0 0 
707 236 2 12.0906 42.6905 25.3464 0 0 0 
708 236 2 11.6768 42.4613 23.7834 0 0 0 
709 237 1 9.02626 41.403 25.8604 0 0 0 
710 237 2 8.31844 41.4308 25.1546 0 0 0 
711 237 2 9.76259 42.0352 25.6192 0 0 0 
712 238 1 10.1371 41.1641 28.4336 0 0 0 
713 238 2 10.7336 40.4444 28.0783 0 0 0 
714 238 2 9.42819 41.3724 27.7597 0 0 0 
715 239 1 10.2736 40.0761 30.7163 0 0 0 
716 239 2 9.49377 39.4505 30.7382 0 0 0 
717 239 2 10.242 40.6189 29.8771 0 0 0 
718 240 1 9.41537 39.4071 33.7272 0 0 0 
719 240 2 10.0364 38.7677 34.1805 0 0 0 
720 240 2 9.94287 40.0355 33.1556 0 0 0 
721 241 1 8.1408 40.3626 37.8509 0 0 0 
722 241 2 8.63496 39.4936 37.8275 0 0 0 
723 241 2 8.78548 41.1162 37.7225 0 0 0 
724 242 1 7.60799 40.7387 43.9276 0 0 0 
725 242 2 7.49085 40.9654 44.8945 0 0 0 
726 242 2 6.73508 40.8466 43.4518 0 0 0 
727 243 1 12.6431 7.83291 7.87326 0 0 0 
728 243 2 12.221 8.71483 7.66329 0 0 0 
729 243 2 13.565 7.98135 8.23104 0 0 0 
730 244 1 10.6028 7.75729 10.7685 0 0 0 
731 244 2 10.6247 7.71875 9.76946 0 0 0 
732 244 2 11.4686 8.12598 11.1068 0 0 0 
733 245 1 15.0098 7.3749 14.8673 0 0 0 
734 245 2 14.3443 6.62871 14.8485 0 0 0 
735 245 2 15.3616 7.53109 13.9444 0 0 0 
736 246 1 11.3182 6.07487 13.4789 0 0 0 
737 246 2 12.0734 5.42967 13.3635 0 0 0 
738 246 2 10.9498 6.32063 12.5822 0 0 0 
739 247 1 13.6175 4.63686 14.636 0 0 0 
740 247 2 13.0695 4.52128 15.4644 0 0 0 
741 247 2 14.5542 4.33361 14.811 0 0 0 
742 248 1 11.4408 8.2507 27.3078 0 0 0 
743 248 2 10.6392 7.71112 27.5655 0 0 0 
744 248 2 11.1586 9.00379 26.7135 0 0 0 