ITEM: TIMESTEP
3500
ITEM: NUMBER OF ATOMS
7168
ITEM: BOX BOUNDS pp pp pp
0.637721 84.3623
0.277596 36.7224
0.277596 36.7224
ITEM: ATOMS id mol type x y z ix iy iz 
1 1 1 7.079 35.648 9.08249 0 -1 0 
2 1 2 7.18097 35.9411 10.0331 0 -1 0 
3 1 2 6.91051 36.446 8.50392 0 -1 0 
4 2 1 7.19565 5.16774 7.88043 0 0 0 
5 2 2 7.86934 5.82595 7.54442 0 0 0 
6 2 2 6.63559 5.59646 8.58932 0 0 0 
7 3 1 4.82542 10.4791 12.0557 0 0 0 
8 3 2 4.01024 10.0736 12.4693 0 0 0 
9 3 2 5.63978 10.0042 12.3893 0 0 0 
10 4 1 2.75515 7.08603 15.2103 0 0 0 
11 4 2 2.08598 7.4926 15.8324 0 0 0 
12 4 2 2.64277 6.09239 15.2031 0 0 0 
13 5 1 1.33243 8.85459 16.9365 0 0 0 
14 5 2 84.0895 8.72225 17.1518 -1 0 0 
15 5 2 1.62391 9.75724 17.2532 0 0 0 
16 6 1 4.07349 8.49767 23.016 0 0 0 
17 6 2 4.56846 8.81592 22.2075 0 0 0 
18 6 2 3.30363 9.10945 23.1977 0 0 0 
19 7 1 6.54912 6.59058 22.2924 0 0 0 
20 7 2 7.13881 7.3982 22.2896 0 0 0 
21 7 2 5.62203 6.85389 22.0256 0 0 0 
22 8 1 7.64716 5.39383 24.5048 0 0 0 
23 8 2 8.40009 4.75836 24.3337 0 0 0 
24 8 2 7.03179 5.4014 23.7166 0 0 0 
25 9 1 8.81255 4.52984 27.7085 0 0 0 
26 9 2 8.23053 4.4568 26.8986 0 0 0 
27 9 2 8.44097 5.22447 28.3245 0 0 0 
28 10 1 9.0927 33.2464 31.3354 0 -1 0 
29 10 2 8.70891 32.6109 30.6654 0 -1 0 
30 10 2 8.80757 32.9743 32.2544 0 -1 0 
31 11 1 4.56911 11.5531 5.54336 0 0 0 
32 11 2 3.64851 11.538 5.15316 0 0 0 
33 11 2 4.68126 10.7762 6.16296 0 0 0 
34 12 1 4.76783 14.006 9.33878 0 0 0 
35 12 2 4.64342 13.0152 9.39065 0 0 0 
36 12 2 4.041 14.4606 9.85361 0 0 0 
37 13 1 3.52852 11.0398 16.1928 0 0 0 
38 13 2 3.88192 11.8023 15.6508 0 0 0 
39 13 2 2.75044 11.3511 16.7384 0 0 0 
40 14 1 1.32301 11.2875 18.2273 0 0 0 
41 14 2 0.649544 12.0199 18.1277 0 0 0 
42 14 2 1.44155 11.0734 19.1969 0 0 0 
43 15 1 1.47672 15.0725 18.5931 0 0 0 
44 15 2 2.2784 15.0697 17.9954 0 0 0 
45 15 2 0.672633 15.3568 18.071 0 0 0 
46 16 1 6.59081 12.133 22.5801 0 0 0 
47 16 2 5.60455 12.2677 22.4846 0 0 0 
48 16 2 6.95759 12.8024 23.2262 0 0 0 
49 17 1 5.6038 9.4551 25.1689 0 0 0 
50 17 2 6.27329 8.8131 25.5425 0 0 0 
51 17 2 5.01914 8.98129 24.5103 0 0 0 
52 18 1 7.22884 7.63759 26.1764 0 0 0 
53 18 2 7.19688 7.29095 27.1138 0 0 0 
54 18 2 7.42806 6.88464 25.5492 0 0 0 
55 19 1 7.47279 10.4293 29.6308 0 0 0 
56 19 2 7.2261 10.7845 28.7291 0 0 0 
57 19 2 8.39832 10.052 29.5986 0 0 0 
58 20 1 8.02608 12.8122 31.101 0 0 0 
59 20 2 7.34662 12.7449 31.8316 0 0 0 
60 20 2 7.85221 12.103 30.4178 0 0 0 
61 21 1 6.05688 16.3194 8.27745 0 0 0 
62 21 2 5.65596 15.4539 8.57776 0 0 0 
63 21 2 5.74259 16.5288 7.35151 0 0 0 
64 22 1 7.01091 15.1206 10.9516 0 0 0 
65 22 2 6.15753 14.6186 10.811 0 0 0 
66 22 2 7.60543 14.9964 10.1572 0 0 0 
67 23 1 1.84081 13.5377 12.5754 0 0 0 
68 23 2 0.979469 13.3156 12.1185 0 0 0 
69 23 2 2.41737 14.0727 11.9578 0 0 0 
70 24 1 6.19178 13.8394 15.3 0 0 0 
71 24 2 5.98016 13.5045 16.2182 0 0 0 
72 24 2 5.35773 13.8494 14.7484 0 0 0 
73 25 1 2.72255 16.8057 20.397 0 0 0 
74 25 2 3.48624 16.3772 20.8797 0 0 0 
75 25 2 2.35561 16.1674 19.7203 0 0 0 
76 26 1 1.79086 11.4414 20.8862 0 0 0 
77 26 2 2.6758 11.6117 21.3196 0 0 0 
78 26 2 1.24733 12.2807 20.897 0 0 0 
79 27 1 3.83595 12.131 22.6958 0 0 0 
80 27 2 3.07326 11.611 23.0803 0 0 0 
81 27 2 3.92862 12.998 23.1854 0 0 0 
82 28 1 1.49681 10.2816 29.2835 0 0 0 
83 28 2 1.37818 9.28936 29.2459 0 0 0 
84 28 2 2.11417 10.5714 28.5521 0 0 0 
85 29 1 4.64962 11.5686 30.384 0 0 0 
86 29 2 5.42976 11.3677 29.7916 0 0 0 
87 29 2 4.67983 10.9745 31.1879 0 0 0 
88 30 1 6.42907 13.0472 33.2247 0 0 0 
89 30 2 6.57574 14.035 33.1727 0 0 0 
90 30 2 5.85347 12.8369 34.015 0 0 0 
91 31 1 1.51536 14.7409 6.11864 0 0 0 
92 31 2 1.45186 14.1131 6.89445 0 0 0 
93 31 2 1.84631 15.6298 6.43538 0 0 0 
94 32 1 83.7741 16.1369 9.36594 -1 0 0 
95 32 2 83.4442 16.0689 10.3075 -1 0 0 
96 32 2 83.039 16.4758 8.77881 -1 0 0 
97 33 1 2.72615 15.3709 10.5109 0 0 0 
98 33 2 1.88908 15.6357 10.0321 0 0 0 
99 33 2 2.89742 16.0096 11.261 0 0 0 
100 34 1 8.12873 16.7467 12.9416 0 0 0 
101 34 2 7.55666 17.5622 12.8537 0 0 0 
102 34 2 7.74158 16.0071 12.391 0 0 0 
103 35 1 3.74816 14.8351 17.0259 0 0 0 
104 35 2 4.5929 14.4124 17.354 0 0 0 
105 35 2 3.9488 15.7476 16.6692 0 0 0 
106 36 1 4.49487 14.709 20.3512 0 0 0 
107 36 2 5.49079 14.7848 20.3024 0 0 0 
108 36 2 4.17807 14.0404 19.6785 0 0 0 
109 37 1 4.31357 15.1682 24.3601 0 0 0 
110 37 2 4.50138 16.1489 24.3074 0 0 0 
111 37 2 4.57873 14.826 25.2615 0 0 0 
112 38 1 4.27094 14.9115 27.0914 0 0 0 
113 38 2 5.19632 14.5342 27.0552 0 0 0 
114 38 2 3.76255 14.4767 27.8347 0 0 0 
115 39 1 2.73183 14.0496 30.3046 0 0 0 
116 39 2 3.29931 13.228 30.2501 0 0 0 
117 39 2 3.21199 14.7521 30.8298 0 0 0 
118 40 1 6.73522 16.8517 34.8438 0 0 0 
119 40 2 5.84215 16.4048 34.7916 0 0 0 
120 40 2 7.16164 16.6428 35.7238 0 0 0 
121 41 1 4.38269 16.5218 5.49298 0 0 0 
122 41 2 3.60414 17.0645 5.17794 0 0 0 
123 41 2 5.23294 17.0014 5.27606 0 0 0 
124 42 1 1.65933 17.7064 7.211 0 0 0 
125 42 2 1.82355 18.6928 7.21081 0 0 0 
126 42 2 1.28855 17.4304 8.09775 0 0 0 
127 43 1 4.21007 16.8614 12.644 0 0 0 
128 43 2 3.96095 17.54 13.3349 0 0 0 
129 43 2 4.79345 17.2879 11.9529 0 0 0 
130 44 1 5.17765 18.9157 14.8638 0 0 0 
131 44 2 4.25658 18.8739 14.4767 0 0 0 
132 44 2 5.12639 19.2254 15.8133 0 0 0 
133 45 1 83.1111 16.3856 17.5746 -1 0 0 
134 45 2 82.7624 16.8639 18.3805 -1 0 0 
135 45 2 82.7657 16.8298 16.7479 -1 0 0 
136 46 1 1.10754 16.7325 22.6 0 0 0 
137 46 2 1.21235 15.8992 23.1428 0 0 0 
138 46 2 1.52748 16.6004 21.7021 0 0 0 
139 47 1 3.71954 20.0624 27.9474 0 0 0 
140 47 2 3.7013 20.5538 27.0766 0 0 0 
141 47 2 3.42819 20.6751 28.682 0 0 0 
142 48 1 5.79315 20.8644 30.8071 0 0 0 
143 48 2 5.17078 20.4393 31.4642 0 0 0 
144 48 2 5.37908 21.7014 30.4492 0 0 0 
145 49 1 4.41457 15.9296 31.483 0 0 0 
146 49 2 4.0909 16.8372 31.7506 0 0 0 
147 49 2 5.27817 15.7334 31.9474 0 0 0 
148 50 1 3.80746 16.7087 34.6527 0 0 0 
149 50 2 3.25552 15.875 34.6352 0 0 0 
150 50 2 3.70622 17.157 35.5408 0 0 0 
151 51 1 1.24812 18.9595 4.58234 0 0 0 
152 51 2 0.935456 18.171 5.11201 0 0 0 
153 51 2 84.2161 19.6025 4.46356 -1 0 0 
154 52 1 3.19858 21.0425 6.50666 0 0 0 
155 52 2 2.30058 21.2158 6.91108 0 0 0 
156 52 2 3.08324 20.6758 5.58351 0 0 0 
157 53 1 1.72235 22.4152 12.2202 0 0 0 
158 53 2 1.71381 23.3388 11.837 0 0 0 
159 53 2 1.97784 21.7612 11.508 0 0 0 
160 54 1 5.48602 21.6075 21.4393 0 0 0 
161 54 2 5.99553 21.1494 20.7109 0 0 0 
162 54 2 5.02968 22.4166 21.0689 0 0 0 
163 55 1 4.49832 19.8808 17.5212 0 0 0 
164 55 2 4.22561 20.8429 17.5216 0 0 0 
165 55 2 4.46326 19.5241 18.4548 0 0 0 
166 56 1 1.75929 18.9484 24.0567 0 0 0 
167 56 2 1.73042 18.0564 23.6056 0 0 0 
168 56 2 2.4752 18.9458 24.7548 0 0 0 
169 57 1 3.46563 21.7331 25.4125 0 0 0 
170 57 2 4.39822 22.0043 25.1744 0 0 0 
171 57 2 2.86155 21.8964 24.6325 0 0 0 
172 58 1 3.11665 22.1703 29.9855 0 0 0 
173 58 2 2.51039 22.2747 29.1971 0 0 0 
174 58 2 2.7673 21.447 30.5812 0 0 0 
175 59 1 7.01976 16.3207 32.1324 0 0 0 
176 59 2 7.47643 16.9583 31.512 0 0 0 
177 59 2 7.07699 16.6679 33.0685 0 0 0 
178 60 1 7.29715 19.5456 35.636 0 0 0 
179 60 2 7.02541 18.6048 35.4333 0 0 0 
180 60 2 6.55427 20.0108 36.1173 0 0 0 
181 61 1 7.06558 26.388 1.66678 0 0 0 
182 61 2 7.24039 25.657 2.3263 0 0 0 
183 61 2 6.29104 26.1356 1.08683 0 0 0 
184 62 1 0.781845 21.1835 8.0596 0 0 0 
185 62 2 0.692317 22.0365 8.57367 0 0 0 
186 62 2 83.6017 20.8749 7.76572 -1 0 0 
187 63 1 2.39589 22.2359 14.8209 0 0 0 
188 63 2 2.14258 22.2632 13.8539 0 0 0 
189 63 2 2.08261 21.3757 15.2234 0 0 0 
190 64 1 4.45442 25.1057 18.2219 0 0 0 
191 64 2 4.12399 24.9307 19.1494 0 0 0 
192 64 2 5.45043 25.194 18.234 0 0 0 
193 65 1 4.42394 24.5505 20.9028 0 0 0 
194 65 2 4.08116 24.8482 21.7938 0 0 0 
195 65 2 5.42323 24.5191 20.9236 0 0 0 
196 66 1 83.1561 22.885 21.6362 -1 0 0 
197 66 2 82.2708 22.6674 22.0472 -1 0 0 
198 66 2 83.0964 22.7838 20.6431 -1 0 0 
199 67 1 6.15774 21.9123 24.3999 0 0 0 
200 67 2 6.45582 20.9704 24.5545 0 0 0 
201 67 2 5.95962 22.0441 23.4286 0 0 0 
202 68 1 1.27801 21.7908 23.5082 0 0 0 
203 68 2 1.1708 20.8022 23.4029 0 0 0 
204 68 2 0.865561 22.2561 22.725 0 0 0 
205 69 1 5.31296 26.2474 32.886 0 0 0 
206 69 2 4.43516 25.8304 32.6502 0 0 0 
207 69 2 5.33118 27.1927 32.5604 0 0 0 
208 70 1 6.80806 24.6513 34.6887 0 0 0 
209 70 2 6.31587 25.2594 34.0658 0 0 0 
210 70 2 6.60695 23.7002 34.4543 0 0 0 
211 71 1 6.74079 24.3039 3.62605 0 0 0 
212 71 2 6.49238 23.41 3.99913 0 0 0 
213 71 2 6.12126 25.0002 3.98849 0 0 0 
214 72 1 2.13714 26.5366 7.0725 0 0 0 
215 72 2 2.48439 27.204 6.41376 0 0 0 
216 72 2 1.28478 26.1419 6.72933 0 0 0 
217 73 1 2.14692 27.4963 9.57681 0 0 0 
218 73 2 2.02485 27.1392 8.65077 0 0 0 
219 73 2 2.24204 28.4911 9.54055 0 0 0 
220 74 1 2.63393 26.7694 16.6739 0 0 0 
221 74 2 3.18646 27.3503 16.0761 0 0 0 
222 74 2 3.21656 26.3695 17.3814 0 0 0 
223 75 1 1.16319 29.3035 15.8358 0 0 0 
224 75 2 1.73037 28.5282 16.1137 0 0 0 
225 75 2 83.9693 29.1982 16.2171 -1 0 0 
226 76 1 4.225 25.1689 23.6061 0 0 0 
227 76 2 4.66547 24.9858 24.485 0 0 0 
228 76 2 3.41945 25.7436 23.7503 0 0 0 
229 77 1 0.994242 25.3053 21.581 0 0 0 
230 77 2 1.70507 25.335 20.8782 0 0 0 
231 77 2 0.671515 24.365 21.6891 0 0 0 
232 78 1 2.12029 22.6938 27.5366 0 0 0 
233 78 2 2.62858 22.4683 26.7055 0 0 0 
234 78 2 1.19166 22.9742 27.2937 0 0 0 
235 79 1 7.75222 27.5612 35.1977 0 0 0 
236 79 2 7.5503 27.6363 36.1742 0 0 0 
237 79 2 7.67581 26.6053 34.9141 0 0 0 
238 80 1 2.55581 27.2434 30.8777 0 0 0 
239 80 2 2.85657 26.3333 30.5926 0 0 0 
240 80 2 1.58813 27.3599 30.6541 0 0 0 
241 81 1 5.22306 29.2518 5.17178 0 0 0 
242 81 2 4.87636 29.9486 5.79972 0 0 0 
243 81 2 5.13764 29.579 4.23071 0 0 0 
244 82 1 5.0618 26.2969 4.8007 0 0 0 
245 82 2 4.92473 25.9089 5.71209 0 0 0 
246 82 2 4.95587 27.2904 4.84204 0 0 0 
247 83 1 7.66694 28.4731 6.5173 0 0 0 
248 83 2 7.15344 28.0632 7.27114 0 0 0 
249 83 2 7.03431 28.9337 5.89466 0 0 0 
250 84 1 3.88931 31.7344 9.00201 0 0 0 
251 84 2 4.63126 32.306 8.65165 0 0 0 
252 84 2 4.26479 31.0406 9.61654 0 0 0 
253 85 1 1.16562 30.3685 11.8128 0 0 0 
254 85 2 2.12841 30.1186 11.9157 0 0 0 
255 85 2 1.02759 30.8046 10.9236 0 0 0 
256 86 1 83.1257 26.5039 23.5017 -1 0 0 
257 86 2 83.7008 27.2669 23.7967 -1 0 0 
258 86 2 83.5924 25.995 22.7784 -1 0 0 
259 87 1 84.2764 25.0339 26.2111 -1 0 0 
260 87 2 84.0819 25.6998 26.9313 -1 0 0 
261 87 2 1.2445 25.4047 25.5924 0 0 0 
262 88 1 7.12116 28.5124 29.3031 0 0 0 
263 88 2 8.1006 28.3429 29.1938 0 0 0 
264 88 2 6.6045 27.791 28.842 0 0 0 
265 89 1 5.04779 28.5335 31.0722 0 0 0 
266 89 2 5.65665 28.7563 30.3109 0 0 0 
267 89 2 4.21959 28.0975 30.72 0 0 0 
268 90 1 3.92876 29.8366 33.2611 0 0 0 
269 90 2 4.59164 29.9597 33.9997 0 0 0 
270 90 2 4.34716 29.3084 32.5223 0 0 0 
271 91 1 9.7244 32.3051 6.46038 0 0 0 
272 91 2 9.9158 31.992 5.53016 0 0 0 
273 91 2 10.5681 32.6408 6.87929 0 0 0 
274 92 1 2.76948 30.5308 6.47272 0 0 0 
275 92 2 1.8055 30.7031 6.2701 0 0 0 
276 92 2 3.02413 31.0093 7.31305 0 0 0 
277 93 1 6.17076 32.876 8.53161 0 0 0 
278 93 2 6.68775 32.141 8.09293 0 0 0 
279 93 2 6.77013 33.6627 8.67967 0 0 0 
280 94 1 6.01337 31.4469 11.1581 0 0 0 
281 94 2 5.60942 32.2526 10.7248 0 0 0 
282 94 2 6.98684 31.6084 11.3201 0 0 0 
283 95 1 3.87948 30.0541 15.2003 0 0 0 
284 95 2 3.80141 29.5471 14.3419 0 0 0 
285 95 2 2.98049 30.404 15.4637 0 0 0 
286 96 1 1.34736 28.3925 24.9655 0 0 0 
287 96 2 2.18924 28.2897 24.4357 0 0 0 
288 96 2 1.52319 28.1536 25.9205 0 0 0 
289 97 1 3.8848 28.6944 23.759 0 0 0 
290 97 2 4.85489 28.548 23.9526 0 0 0 
291 97 2 3.77512 29.5278 23.2173 0 0 0 
292 98 1 7.35458 31.1894 30.7687 0 0 0 
293 98 2 7.44473 30.842 31.7021 0 0 0 
294 98 2 7.3877 30.4255 30.1241 0 0 0 
295 99 1 7.1489 29.6347 33.3939 0 0 0 
296 99 2 6.70556 29.1131 32.6649 0 0 0 
297 99 2 7.55815 29.0041 34.0533 0 0 0 
298 100 1 9.08381 31.5288 34.6077 0 0 0 
299 100 2 9.70927 31.1935 35.3122 0 0 0 
300 100 2 8.21411 31.0396 34.6739 0 0 0 
301 101 1 7.42856 2.57635 8.44467 0 0 0 
302 101 2 6.97525 3.33183 7.97166 0 0 0 
303 101 2 8.10256 2.94161 9.08678 0 0 0 
304 102 1 6.18079 6.84901 9.76207 0 0 0 
305 102 2 5.75139 7.08039 10.635 0 0 0 
306 102 2 6.86842 7.53887 9.53564 0 0 0 
307 103 1 8.04133 8.91939 9.74541 0 0 0 
308 103 2 8.69662 8.43395 10.3242 0 0 0 
309 103 2 8.20462 9.90382 9.81033 0 0 0 
310 104 1 4.94588 8.80754 15.4823 0 0 0 
311 104 2 4.42297 9.60941 15.7714 0 0 0 
312 104 2 4.319 8.103 15.1497 0 0 0 
313 105 1 9.91532 8.13862 14.4322 0 0 0 
314 105 2 8.93667 8.05391 14.6195 0 0 0 
315 105 2 10.0889 7.93693 13.4682 0 0 0 
316 106 1 6.65389 9.40643 21.7605 0 0 0 
317 106 2 6.58711 10.3336 22.1291 0 0 0 
318 106 2 7.06085 9.43921 20.8476 0 0 0 
319 107 1 6.13092 11.465 27.3967 0 0 0 
320 107 2 5.84187 10.8713 26.6458 0 0 0 
321 107 2 6.48006 12.3255 27.0258 0 0 0 
322 108 1 9.06334 8.356 34.9475 0 0 0 
323 108 2 8.37591 7.89739 34.3843 0 0 0 
324 108 2 9.58716 7.67283 35.4563 0 0 0 
325 109 1 11.3191 0.976558 30.5529 0 0 0 
326 109 2 10.8345 0.736604 31.394 0 0 0 
327 109 2 11.6247 1.92736 30.6039 0 0 0 
328 110 1 11.3758 4.91417 28.596 0 0 0 
329 110 2 10.4123 4.6943 28.443 0 0 0 
330 110 2 11.6402 4.63052 29.5177 0 0 0 
331 111 1 8.46734 13.4936 5.84507 0 0 0 
332 111 2 7.51681 13.5732 5.54483 0 0 0 
333 111 2 9.07432 13.8181 5.11963 0 0 0 
334 112 1 7.62742 10.3212 6.08962 0 0 0 
335 112 2 6.84113 10.7954 5.6935 0 0 0 
336 112 2 8.40465 10.9485 6.1391 0 0 0 
337 113 1 6.85333 9.70552 13.6901 0 0 0 
338 113 2 6.38262 9.13889 14.3663 0 0 0 
339 113 2 6.96216 10.6323 14.0495 0 0 0 
340 114 1 7.36752 12.1311 19.9778 0 0 0 
341 114 2 7.14152 12.2301 20.9469 0 0 0 
342 114 2 7.83786 11.2606 19.8325 0 0 0 
343 115 1 6.57704 10.6463 16.8495 0 0 0 
344 115 2 5.63824 10.9767 16.7523 0 0 0 
345 115 2 6.60556 9.66409 16.6638 0 0 0 
346 116 1 6.01058 13.5244 18.0276 0 0 0 
347 116 2 6.72896 14.1993 18.196 0 0 0 
348 116 2 6.33153 12.6193 18.3066 0 0 0 
349 117 1 9.65802 8.41821 24.9085 0 0 0 
350 117 2 10.4382 7.79614 24.8426 0 0 0 
351 117 2 8.94529 8.00049 25.472 0 0 0 
352 118 1 7.80537 7.0732 29.0178 0 0 0 
353 118 2 8.49002 7.77171 29.226 0 0 0 
354 118 2 7.09343 7.0846 29.72 0 0 0 
355 119 1 9.83517 9.22054 28.9003 0 0 0 
356 119 2 10.6001 9.84337 29.0645 0 0 0 
357 119 2 10.1688 8.39631 28.4428 0 0 0 
358 120 1 12.1333 9.92703 0.488264 0 0 1 
359 120 2 11.7898 9.69451 1.39816 0 0 1 
360 120 2 11.4578 10.4887 36.4553 0 0 0 
361 121 1 5.54086 14.028 4.78117 0 0 0 
362 121 2 4.97732 14.819 5.01908 0 0 0 
363 121 2 5.05391 13.1879 5.02015 0 0 0 
364 122 1 8.92002 14.5496 8.82668 0 0 0 
365 122 2 9.81481 14.1129 8.91959 0 0 0 
366 122 2 9.02469 15.4281 8.36058 0 0 0 
367 123 1 8.06604 11.7882 9.7724 0 0 0 
368 123 2 7.12586 11.4823 9.92225 0 0 0 
369 123 2 8.05918 12.7156 9.39841 0 0 0 
370 124 1 9.93318 15.6719 14.6845 0 0 0 
371 124 2 10.6866 16.3103 14.8418 0 0 0 
372 124 2 9.2722 16.0843 14.0576 0 0 0 
373 125 1 10.4491 14.11 16.7572 0 0 0 
374 125 2 10.1188 14.8756 16.2052 0 0 0 
375 125 2 11.0451 13.5308 16.2011 0 0 0 
376 126 1 10.1987 11.9823 22.3872 0 0 0 
377 126 2 11.1076 11.6013 22.2177 0 0 0 
378 126 2 9.78684 11.5241 23.1749 0 0 0 
379 127 1 7.30771 14.7125 23.5532 0 0 0 
380 127 2 6.53835 15.3507 23.5256 0 0 0 
381 127 2 8.15191 15.2159 23.7373 0 0 0 
382 128 1 6.80421 13.8468 26.0562 0 0 0 
383 128 2 7.68082 14.191 26.3926 0 0 0 
384 128 2 6.76817 13.9424 25.0614 0 0 0 
385 129 1 4.80052 17.8142 27.1182 0 0 0 
386 129 2 4.37865 18.5339 27.6696 0 0 0 
387 129 2 4.12832 17.0965 26.9361 0 0 0 
388 130 1 8.12249 12.9724 36.3139 0 0 0 
389 130 2 8.62726 12.1093 36.3296 0 0 0 
390 130 2 7.78277 13.143 35.3889 0 0 0 
391 131 1 7.46229 15.8818 3.66755 0 0 0 
392 131 2 7.1109 16.6745 4.16575 0 0 0 
393 131 2 6.86107 15.0978 3.82191 0 0 0 
394 132 1 9.39124 18.544 10.7917 0 0 0 
395 132 2 9.11046 18.0077 11.5876 0 0 0 
396 132 2 9.10478 18.0753 9.95606 0 0 0 
397 133 1 8.44266 17.5796 7.95223 0 0 0 
398 133 2 7.60845 17.0436 8.08165 0 0 0 
399 133 2 8.39839 18.0586 7.07555 0 0 0 
400 134 1 8.1367 15.2408 18.2197 0 0 0 
401 134 2 9.08656 14.9282 18.2148 0 0 0 
402 134 2 7.97838 15.8383 17.4336 0 0 0 
403 135 1 7.18117 15.6243 21.0686 0 0 0 
404 135 2 7.61284 15.7637 20.1774 0 0 0 
405 135 2 7.80617 15.1229 21.6669 0 0 0 
406 136 1 5.09822 18.2304 19.556 0 0 0 
407 136 2 5.91444 17.7195 19.8256 0 0 0 
408 136 2 4.29051 17.8113 19.9706 0 0 0 
409 137 1 6.15173 17.3907 23.1656 0 0 0 
410 137 2 6.69934 17.0074 22.4219 0 0 0 
411 137 2 5.50289 18.0547 22.7938 0 0 0 
412 138 1 8.82032 19.1003 26.7441 0 0 0 
413 138 2 8.58127 19.3788 27.6743 0 0 0 
414 138 2 8.01093 19.16 26.1598 0 0 0 
415 139 1 10.5744 12.8838 32.0074 0 0 0 
416 139 2 9.61602 12.895 31.7222 0 0 0 
417 139 2 10.9972 13.7636 31.7899 0 0 0 
418 140 1 7.77842 15.813 0.816314 0 0 1 
419 140 2 7.74415 14.8226 0.682638 0 0 1 
420 140 2 7.67689 16.0218 1.78899 0 0 1 
421 141 1 6.70756 18.2195 5.3028 0 0 0 
422 141 2 6.86814 18.6599 4.41951 0 0 0 
423 141 2 6.31049 18.8817 5.93821 0 0 0 
424 142 1 5.73519 19.9918 7.11178 0 0 0 
425 142 2 4.97177 20.4676 7.54855 0 0 0 
426 142 2 6.52379 20.6044 7.05954 0 0 0 
427 143 1 6.03903 17.8535 10.9126 0 0 0 
428 143 2 5.87055 18.3305 10.05 0 0 0 
429 143 2 6.36791 16.9284 10.7232 0 0 0 
430 144 1 7.32281 17.2853 16.3691 0 0 0 
431 144 2 7.80697 16.6461 15.7716 0 0 0 
432 144 2 6.51934 17.643 15.8932 0 0 0 
433 145 1 4.38998 19.1905 22.3656 0 0 0 
434 145 2 3.49244 19.3493 21.9542 0 0 0 
435 145 2 4.99081 19.9639 22.1633 0 0 0 
436 146 1 9.18385 21.3832 22.5965 0 0 0 
437 146 2 9.14927 20.4025 22.789 0 0 0 
438 146 2 8.98954 21.5399 21.6282 0 0 0 
439 147 1 9.43198 18.745 22.8085 0 0 0 
440 147 2 9.54768 18.0981 23.5623 0 0 0 
441 147 2 9.29407 18.2416 21.9555 0 0 0 
442 148 1 7.96968 19.3206 29.5538 0 0 0 
443 148 2 7.25449 19.8628 29.9948 0 0 0 
444 148 2 7.61771 18.4069 29.3507 0 0 0 
445 149 1 8.70699 15.1181 29.7617 0 0 0 
446 149 2 7.84839 15.6286 29.7145 0 0 0 
447 149 2 8.58546 14.3146 30.3445 0 0 0 
448 150 1 10.0998 16.5797 36.186 0 0 0 
449 150 2 10.4269 15.7206 35.7923 0 0 0 
450 150 2 9.31703 16.3969 0.336116 0 0 1 
451 151 1 5.84435 21.8907 4.8043 0 0 0 
452 151 2 6.62557 21.5548 5.33048 0 0 0 
453 151 2 4.99555 21.6236 5.26054 0 0 0 
454 152 1 6.30988 20.5155 13.1586 0 0 0 
455 152 2 5.80403 19.908 13.771 0 0 0 
456 152 2 7.0409 20.0022 12.709 0 0 0 
457 153 1 5.04586 21.8784 10.1066 0 0 0 
458 153 2 5.40436 22.0881 11.0162 0 0 0 
459 153 2 5.54633 22.4071 9.42103 0 0 0 
460 154 1 6.99045 21.3017 19.1736 0 0 0 
461 154 2 6.23289 21.2349 18.5243 0 0 0 
462 154 2 7.83847 21.4899 18.6782 0 0 0 
463 155 1 2.87069 17.8217 16.4564 0 0 0 
464 155 2 1.87953 17.9418 16.4001 0 0 0 
465 155 2 3.26089 18.538 17.0349 0 0 0 
466 156 1 9.86711 17.6561 20.0675 0 0 0 
467 156 2 10.6237 18.283 20.2537 0 0 0 
468 156 2 10.2184 16.833 19.6213 0 0 0 
469 157 1 6.58485 18.9608 25.3804 0 0 0 
470 157 2 5.77354 18.6322 25.8639 0 0 0 
471 157 2 6.63562 18.5265 24.4811 0 0 0 
472 158 1 10.2463 20.6429 29.5255 0 0 0 
473 158 2 10.81 20.3292 28.7613 0 0 0 
474 158 2 9.33368 20.2405 29.4536 0 0 0 
475 159 1 6.32748 16.9094 29.2854 0 0 0 
476 159 2 5.79497 16.3366 29.9086 0 0 0 
477 159 2 5.85056 16.9817 28.4094 0 0 0 
478 160 1 9.85514 19.2401 35.5332 0 0 0 
479 160 2 8.88771 19.4167 35.7145 0 0 0 
480 160 2 10.0498 18.27 35.6786 0 0 0 
481 161 1 10.2234 23.803 2.48963 0 0 0 
482 161 2 9.2999 24.1049 2.25275 0 0 0 
483 161 2 10.6583 23.3981 1.68531 0 0 0 
484 162 1 5.09972 25.1372 7.53899 0 0 0 
485 162 2 5.76873 24.5193 7.95207 0 0 0 
486 162 2 4.18009 24.8785 7.83453 0 0 0 
487 163 1 4.977 22.7121 13.4887 0 0 0 
488 163 2 4.55109 22.5556 14.3799 0 0 0 
489 163 2 5.60479 21.9614 13.2829 0 0 0 
490 164 1 3.91483 22.5584 16.9414 0 0 0 
491 164 2 3.18638 22.672 16.2658 0 0 0 
492 164 2 4.13516 23.4458 17.3463 0 0 0 
493 165 1 10.7079 23.8065 18.8815 0 0 0 
494 165 2 10.1725 24.5664 18.5128 0 0 0 
495 165 2 10.4805 22.9677 18.387 0 0 0 
496 166 1 5.86873 24.4208 25.6433 0 0 0 
497 166 2 6.18702 23.6664 25.0693 0 0 0 
498 166 2 5.25675 24.0665 26.3504 0 0 0 
499 167 1 8.34764 22.6537 26.078 0 0 0 
500 167 2 7.35917 22.5671 25.9538 0 0 0 
501 167 2 8.75001 23.0753 25.2654 0 0 0 
502 168 1 8.41304 22.7298 28.84 0 0 0 
503 168 2 8.54243 22.5267 27.8694 0 0 0 
504 168 2 9.04317 22.1753 29.3835 0 0 0 
505 169 1 11.8563 20.8882 31.4924 0 0 0 
506 169 2 11.8069 20.1616 32.1778 0 0 0 
507 169 2 11.2009 20.7012 30.7606 0 0 0 
508 170 1 7.41547 29.0507 1.58923 0 0 1 
509 170 2 8.2433 29.3352 1.10574 0 0 1 
510 170 2 7.34986 28.0529 1.57918 0 0 1 
511 171 1 8.35508 25.1469 5.80359 0 0 0 
512 171 2 7.94454 25.9215 5.32244 0 0 0 
513 171 2 8.36499 24.3482 5.20203 0 0 0 
514 172 1 8.66851 27.2887 9.49239 0 0 0 
515 172 2 8.9655 26.704 8.73748 0 0 0 
516 172 2 7.67082 27.3567 9.48882 0 0 0 
517 173 1 6.06301 27.4691 9.0739 0 0 0 
518 173 2 5.87224 27.6993 10.0281 0 0 0 
519 173 2 5.27221 27.0011 8.67942 0 0 0 
520 174 1 7.46766 23.599 16.2201 0 0 0 
521 174 2 6.75742 23.1466 15.6807 0 0 0 
522 174 2 8.36556 23.3842 15.8358 0 0 0 
523 175 1 7.66906 24.8562 18.6813 0 0 0 
524 175 2 7.3183 24.3353 17.9031 0 0 0 
525 175 2 8.23148 25.6135 18.3493 0 0 0 
526 176 1 7.13518 24.317 21.3639 0 0 0 
527 176 2 7.94413 24.4436 21.938 0 0 0 
528 176 2 7.37176 24.4997 20.4097 0 0 0 
529 177 1 5.72208 26.9842 27.5716 0 0 0 
530 177 2 4.79509 27.0889 27.2114 0 0 0 
531 177 2 6.16518 26.2041 27.1299 0 0 0 
532 178 1 6.29261 24.0939 30.2896 0 0 0 
533 178 2 6.74486 24.9774 30.4119 0 0 0 
534 178 2 6.9473 23.432 29.9246 0 0 0 
535 179 1 9.02628 27.01 32.08 0 0 0 
536 179 2 9.16062 26.0191 32.078 0 0 0 
537 179 2 8.07515 27.217 32.3091 0 0 0 
538 180 1 11.657 26.7333 36.0715 0 0 0 
539 180 2 11.1305 25.8836 36.0438 0 0 0 
540 180 2 12.613 26.5264 36.2796 0 0 0 
541 181 1 5.39053 30.8677 2.8941 0 0 0 
542 181 2 6.05927 30.385 2.32856 0 0 0 
543 181 2 5.09556 31.6998 2.42451 0 0 0 
544 182 1 9.27859 28.5941 4.02019 0 0 0 
545 182 2 8.70069 28.675 3.20811 0 0 0 
546 182 2 8.70228 28.4793 4.82931 0 0 0 
547 183 1 7.86137 28.8477 12.7394 0 0 0 
548 183 2 7.43916 29.2997 13.5251 0 0 0 
549 183 2 8.2052 29.538 12.1028 0 0 0 
550 184 1 5.77659 27.5037 11.6999 0 0 0 
551 184 2 6.61068 27.9732 11.9895 0 0 0 
552 184 2 5.83875 26.5351 11.9403 0 0 0 
553 185 1 6.33539 24.9634 12.6246 0 0 0 
554 185 2 7.27784 24.6709 12.7865 0 0 0 
555 185 2 5.70866 24.2311 12.8909 0 0 0 
556 186 1 8.69411 28.3136 21.9462 0 0 0 
557 186 2 9.45153 28.3389 22.5986 0 0 0 
558 186 2 8.161 27.4793 22.0866 0 0 0 
559 187 1 10.9719 26.206 25.0092 0 0 0 
560 187 2 10.0558 26.0636 24.6344 0 0 0 
561 187 2 10.9209 26.2486 26.007 0 0 0 
562 188 1 4.37269 24.108 27.8418 0 0 0 
563 188 2 4.85094 24.0085 28.7144 0 0 0 
564 188 2 3.63612 23.4339 27.7867 0 0 0 
565 189 1 9.88318 28.0524 29.556 0 0 0 
566 189 2 9.80016 27.9629 30.5485 0 0 0 
567 189 2 10.3018 28.9332 29.3346 0 0 0 
568 190 1 12.5567 30.0205 35.0597 0 0 0 
569 190 2 12.0714 29.1857 35.3197 0 0 0 
570 190 2 12.8779 29.9393 34.1162 0 0 0 
571 191 1 11.1113 30.767 4.62873 0 0 0 
572 191 2 10.5321 30.0546 4.23246 0 0 0 
573 191 2 11.8609 30.975 4.00033 0 0 0 
574 192 1 7.79176 31.0101 7.68298 0 0 0 
575 192 2 8.60292 31.4978 7.3602 0 0 0 
576 192 2 7.79211 30.0811 7.31288 0 0 0 
577 193 1 8.79441 30.7941 10.8417 0 0 0 
578 193 2 9.5329 31.4555 10.7108 0 0 0 
579 193 2 8.55437 30.384 9.96185 0 0 0 
580 194 1 10.8497 32.2766 9.68568 0 0 0 
581 194 2 11.7056 31.7596 9.69857 0 0 0 
582 194 2 10.999 33.1572 9.23594 0 0 0 
583 195 1 3.83157 29.6125 11.8488 0 0 0 
584 195 2 4.3325 28.7842 11.5979 0 0 0 
585 195 2 4.48054 30.3375 12.0793 0 0 0 
586 196 1 11.3969 28.4812 23.6914 0 0 0 
587 196 2 11.3574 27.6097 24.1802 0 0 0 
588 196 2 12.2643 28.9368 23.8917 0 0 0 
589 197 1 6.45282 28.6555 24.7266 0 0 0 
590 197 2 6.89242 29.1384 25.484 0 0 0 
591 197 2 6.85523 27.7448 24.6335 0 0 0 
592 198 1 10.9732 30.5215 29.7136 0 0 0 
593 198 2 10.9543 30.5824 30.7115 0 0 0 
594 198 2 10.5876 31.3567 29.3213 0 0 0 
595 199 1 11.4985 34.7251 30.9663 0 0 0 
596 199 2 10.5921 34.3339 30.8069 0 0 0 
597 199 2 11.5306 35.6536 30.5965 0 0 0 
598 200 1 10.349 30.0643 32.3678 0 0 0 
599 200 2 9.82979 30.6779 32.9628 0 0 0 
600 200 2 10.507 29.197 32.8399 0 0 0 
601 201 1 5.32294 9.63657 7.54676 0 0 0 
602 201 2 6.2707 9.69207 7.23265 0 0 0 
603 201 2 5.06192 8.67686 7.65073 0 0 0 
604 202 1 9.93677 11.7951 7.41464 0 0 0 
605 202 2 9.28879 11.5409 8.13265 0 0 0 
606 202 2 9.50955 12.4576 6.79938 0 0 0 
607 203 1 15.0396 4.64518 13.8387 0 0 0 
608 203 2 14.2684 4.50301 14.4591 0 0 0 
609 203 2 15.375 3.76023 13.5156 0 0 0 
610 204 1 13.1377 8.26177 17.4319 0 0 0 
611 204 2 12.5763 8.77036 16.779 0 0 0 
612 204 2 13.2184 8.78467 18.2804 0 0 0 
613 205 1 11.8637 9.82569 15.8534 0 0 0 
614 205 2 11.3666 10.6431 16.1445 0 0 0 
615 205 2 11.488 9.49811 14.9865 0 0 0 
616 206 1 8.43267 9.56945 19.4828 0 0 0 
617 206 2 9.02449 9.86911 18.7345 0 0 0 
618 206 2 8.63047 8.61404 19.7021 0 0 0 
619 207 1 11.7664 6.74964 24.7098 0 0 0 
620 207 2 12.2198 6.05574 24.1504 0 0 0 
621 207 2 12.3817 7.52703 24.8401 0 0 0 
622 208 1 14.3528 6.19286 29.6748 0 0 0 
623 208 2 14.8117 6.09207 28.792 0 0 0 
624 208 2 13.981 7.11782 29.7535 0 0 0 
625 209 1 12.3576 4.53894 31.1563 0 0 0 
626 209 2 13.1114 4.75457 30.5355 0 0 0 
627 209 2 12.7174 4.38496 32.0766 0 0 0 
628 210 1 14.9473 7.06791 0.390351 0 0 1 
629 210 2 15.3286 6.44455 1.07302 0 0 1 
630 210 2 14.8664 7.98379 0.783559 0 0 1 
631 211 1 13.183 7.93849 8.43094 0 0 0 
632 211 2 13.0102 8.75889 7.88588 0 0 0 
633 211 2 12.8606 8.08558 9.36605 0 0 0 
634 212 1 12.5575 11.0627 7.17345 0 0 0 
635 212 2 12.5955 11.5269 6.28851 0 0 0 
636 212 2 11.6637 11.2194 7.59384 0 0 0 
637 213 1 12.9716 5.65682 16.266 0 0 0 
638 213 2 12.7439 6.46395 16.8107 0 0 0 
639 213 2 12.1402 5.13141 16.085 0 0 0 
640 214 1 16.2829 12.2135 13.8934 0 0 0 
641 214 2 16.7176 11.4918 13.3547 0 0 0 
642 214 2 15.3614 12.3816 13.5433 0 0 0 
643 215 1 9.41602 11.3404 16.8551 0 0 0 
644 215 2 9.72462 12.278 16.6952 0 0 0 
645 215 2 8.42129 11.2965 16.7625 0 0 0 
646 216 1 12.5229 10.4143 22.3831 0 0 0 
647 216 2 13.3706 10.9373 22.472 0 0 0 
648 216 2 12.4253 9.80202 23.1678 0 0 0 
649 217 1 8.52271 10.7776 24.6746 0 0 0 
650 217 2 7.6778 10.548 25.1577 0 0 0 
651 217 2 9.13037 9.98343 24.6699 0 0 0 
652 218 1 11.7159 7.51526 27.6365 0 0 0 
653 218 2 11.7341 7.62391 26.6426 0 0 0 
654 218 2 11.706 6.54184 27.8653 0 0 0 
655 219 1 5.73106 7.29413 31.0332 0 0 0 
656 219 2 5.59674 8.28483 31.0548 0 0 0 
657 219 2 4.8423 6.83823 30.9857 0 0 0 
658 220 1 12.1109 7.60467 35.1495 0 0 0 
659 220 2 12.456 8.09255 35.9513 0 0 0 
660 220 2 11.7176 8.25981 34.5045 0 0 0 
661 221 1 10.3449 14.111 3.86145 0 0 0 
662 221 2 10.4637 15.0552 4.16855 0 0 0 
663 221 2 10.4164 14.0732 2.86473 0 0 0 
664 222 1 10.2826 8.68761 11.8654 0 0 0 
665 222 2 11.1973 8.45693 11.5334 0 0 0 
666 222 2 10.2259 9.67253 12.0288 0 0 0 
667 223 1 10.0308 11.8114 12.0964 0 0 0 
668 223 2 9.54992 12.4022 12.7442 0 0 0 
669 223 2 9.44257 11.6335 11.3075 0 0 0 
670 224 1 8.443 13.3345 13.8369 0 0 0 
671 224 2 8.89068 14.2044 13.63 0 0 0 
672 224 2 7.59156 13.5072 14.332 0 0 0 
673 225 1 12.7266 13.1756 15.1588 0 0 0 
674 225 2 12.5112 12.9122 14.2185 0 0 0 
675 225 2 13.708 13.0687 15.3184 0 0 0 
676 226 1 9.7432 13.6885 20.246 0 0 0 
677 226 2 9.94367 13.1442 21.0606 0 0 0 
678 226 2 8.8457 13.4326 19.8868 0 0 0 
679 227 1 10.4303 12.6262 25.4712 0 0 0 
680 227 2 9.63632 12.1082 25.153 0 0 0 
681 227 2 10.1411 13.288 26.1629 0 0 0 
682 228 1 9.40328 14.5714 27.1053 0 0 0 
683 228 2 9.83876 15.4155 26.7925 0 0 0 
684 228 2 9.10436 14.682 28.0531 0 0 0 
685 229 1 9.79994 10.974 35.6994 0 0 0 
686 229 2 10.4051 11.2481 34.952 0 0 0 
687 229 2 9.36443 10.1027 35.4732 0 0 0 
688 230 1 11.4905 14.0809 1.17788 0 0 1 
689 230 2 11.7331 14.5349 0.320534 0 0 1 
690 230 2 11.5737 13.0906 1.06583 0 0 1 
691 231 1 12.6091 17.0567 1.35622 0 0 0 
692 231 2 13.4749 16.8395 0.905449 0 0 0 
693 231 2 11.8518 16.8729 0.729594 0 0 0 
694 232 1 9.56996 16.786 4.96367 0 0 0 
695 232 2 10.0819 17.6408 4.87843 0 0 0 
696 232 2 8.94001 16.6964 4.19222 0 0 0 
697 233 1 12.2601 16.0588 6.61646 0 0 0 
698 233 2 11.3151 15.8699 6.34959 0 0 0 
699 233 2 12.2969 16.9176 7.12741 0 0 0 
700 234 1 9.56952 18.3544 17.4018 0 0 0 
701 234 2 8.66904 18.1888 16.9996 0 0 0 
702 234 2 9.5189 18.2346 18.3933 0 0 0 
703 235 1 11.4244 15.2388 19.1483 0 0 0 
704 235 2 11.4472 14.8419 18.2307 0 0 0 
705 235 2 10.8161 14.6988 19.73 0 0 0 
706 236 1 13.4168 15.8234 16.8885 0 0 0 
707 236 2 13.2639 15.6674 17.8643 0 0 0 
708 236 2 13.0851 15.0359 16.369 0 0 0 
709 237 1 11.8166 14.387 23.7207 0 0 0 
710 237 2 11.3375 13.7319 24.305 0 0 0 
711 237 2 12.1166 13.9296 22.8836 0 0 0 
712 238 1 10.4145 17.0515 26.4731 0 0 0 
713 238 2 9.76467 17.8115 26.4591 0 0 0 
714 238 2 11.1474 17.2516 27.1233 0 0 0 
715 239 1 11.7489 10.9274 29.6752 0 0 0 
716 239 2 11.2397 11.6682 30.1132 0 0 0 
717 239 2 12.3649 11.3085 28.9858 0 0 0 
718 240 1 14.5076 12.2629 1.5108 0 0 1 
719 240 2 14.8452 11.4132 1.91567 0 0 1 
720 240 2 14.4778 12.9767 2.2105 0 0 1 
721 241 1 8.3868 19.4816 3.32655 0 0 0 
722 241 2 8.22189 19.7957 2.39161 0 0 0 
723 241 2 8.99125 20.1271 3.79335 0 0 0 
724 242 1 13.0395 18.5621 7.76427 0 0 0 
725 242 2 13.0721 19.2555 8.48408 0 0 0 
726 242 2 13.9709 18.3028 7.50878 0 0 0 
727 243 1 11.5491 19.8567 11.2251 0 0 0 
728 243 2 11.914 19.7702 12.1522 0 0 0 
729 243 2 10.7477 19.2668 11.126 0 0 0 
730 244 1 11.9688 18.1385 15.9022 0 0 0 
731 244 2 12.4769 17.4009 16.347 0 0 0 
732 244 2 11.0049 18.0835 16.1625 0 0 0 
733 245 1 13.3939 20.1803 18.5166 0 0 0 
734 245 2 14.1591 20.8231 18.4786 0 0 0 
735 245 2 13.2132 19.8227 17.6004 0 0 0 
736 246 1 9.52878 16.2282 23.8706 0 0 0 
737 246 2 10.1144 15.5585 23.4139 0 0 0 
738 246 2 9.92056 16.4616 24.7606 0 0 0 
739 247 1 12.5536 17.3595 28.2541 0 0 0 
740 247 2 12.3882 17.9699 29.0287 0 0 0 
741 247 2 13.3206 17.7064 27.7142 0 0 0 
742 248 1 12.2027 15.0804 30.0388 0 0 0 
743 248 2 11.9158 15.6632 29.2785 0 0 0 