LAMMPS Description

     10825  atoms
     7224  bonds
     3600  angles
     0  dihedrals
     0  impropers

     3  atom types
     2  bond types
     1  angle types

  0.0 88.0 xlo xhi
  0.0 42.0 ylo yhi
  0.0 42.0 zlo zhi

Masses

    1 15.9994
    2 1.008
    3   30.07

Atoms

1 1 1 -0.82 1.5 1.3 1.777359
2 1 2 0.41 1.5 2.1164904 2.3546718
3 1 2 0.41 1.5 2.1164904 1.2
4 2 1 -0.82 1.5 1.3 5.277359
5 2 2 0.41 1.5 2.1164904 5.8546718
6 2 2 0.41 1.5 2.1164904 4.7
7 3 1 -0.82 1.5 1.3 8.777359
8 3 2 0.41 1.5 2.1164904 9.3546718
9 3 2 0.41 1.5 2.1164904 8.2
10 4 1 -0.82 1.5 1.3 12.277359
11 4 2 0.41 1.5 2.1164904 12.8546718
12 4 2 0.41 1.5 2.1164904 11.7
13 5 1 -0.82 1.5 1.3 15.777359
14 5 2 0.41 1.5 2.1164904 16.3546718
15 5 2 0.41 1.5 2.1164904 15.2
16 6 1 -0.82 1.5 1.3 19.277359
17 6 2 0.41 1.5 2.1164904 19.8546718
18 6 2 0.41 1.5 2.1164904 18.7
19 7 1 -0.82 1.5 1.3 22.777359
20 7 2 0.41 1.5 2.1164904 23.3546718
21 7 2 0.41 1.5 2.1164904 22.2
22 8 1 -0.82 1.5 1.3 26.277359
23 8 2 0.41 1.5 2.1164904 26.8546718
24 8 2 0.41 1.5 2.1164904 25.7
25 9 1 -0.82 1.5 1.3 29.777359
26 9 2 0.41 1.5 2.1164904 30.3546718
27 9 2 0.41 1.5 2.1164904 29.2
28 10 1 -0.82 1.5 1.3 33.277359
29 10 2 0.41 1.5 2.1164904 33.8546718
30 10 2 0.41 1.5 2.1164904 32.7
31 11 1 -0.82 1.5 1.3 36.777359
32 11 2 0.41 1.5 2.1164904 37.3546718
33 11 2 0.41 1.5 2.1164904 36.2
34 12 1 -0.82 1.5 1.3 40.277359
35 12 2 0.41 1.5 2.1164904 40.8546718
36 12 2 0.41 1.5 2.1164904 39.7
37 13 1 -0.82 1.5 4.8 1.777359
38 13 2 0.41 1.5 5.6164904 2.3546718
39 13 2 0.41 1.5 5.6164904 1.2
40 14 1 -0.82 1.5 4.8 5.277359
41 14 2 0.41 1.5 5.6164904 5.8546718
42 14 2 0.41 1.5 5.6164904 4.7
43 15 1 -0.82 1.5 4.8 8.777359
44 15 2 0.41 1.5 5.6164904 9.3546718
45 15 2 0.41 1.5 5.6164904 8.2
46 16 1 -0.82 1.5 4.8 12.277359
47 16 2 0.41 1.5 5.6164904 12.8546718
48 16 2 0.41 1.5 5.6164904 11.7
49 17 1 -0.82 1.5 4.8 15.777359
50 17 2 0.41 1.5 5.6164904 16.3546718
51 17 2 0.41 1.5 5.6164904 15.2
52 18 1 -0.82 1.5 4.8 19.277359
53 18 2 0.41 1.5 5.6164904 19.8546718
54 18 2 0.41 1.5 5.6164904 18.7
55 19 1 -0.82 1.5 4.8 22.777359
56 19 2 0.41 1.5 5.6164904 23.3546718
57 19 2 0.41 1.5 5.6164904 22.2
58 20 1 -0.82 1.5 4.8 26.277359
59 20 2 0.41 1.5 5.6164904 26.8546718
60 20 2 0.41 1.5 5.6164904 25.7
61 21 1 -0.82 1.5 4.8 29.777359
62 21 2 0.41 1.5 5.6164904 30.3546718
63 21 2 0.41 1.5 5.6164904 29.2
64 22 1 -0.82 1.5 4.8 33.277359
65 22 2 0.41 1.5 5.6164904 33.8546718
66 22 2 0.41 1.5 5.6164904 32.7
67 23 1 -0.82 1.5 4.8 36.777359
68 23 2 0.41 1.5 5.6164904 37.3546718
69 23 2 0.41 1.5 5.6164904 36.2
70 24 1 -0.82 1.5 4.8 40.277359
71 24 2 0.41 1.5 5.6164904 40.8546718
72 24 2 0.41 1.5 5.6164904 39.7
73 25 1 -0.82 1.5 8.3 1.777359
74 25 2 0.41 1.5 9.1164904 2.3546718
75 25 2 0.41 1.5 9.1164904 1.2
76 26 1 -0.82 1.5 8.3 5.277359
77 26 2 0.41 1.5 9.1164904 5.8546718
78 26 2 0.41 1.5 9.1164904 4.7
79 27 1 -0.82 1.5 8.3 8.777359
80 27 2 0.41 1.5 9.1164904 9.3546718
81 27 2 0.41 1.5 9.1164904 8.2
82 28 1 -0.82 1.5 8.3 12.277359
83 28 2 0.41 1.5 9.1164904 12.8546718
84 28 2 0.41 1.5 9.1164904 11.7
85 29 1 -0.82 1.5 8.3 15.777359
86 29 2 0.41 1.5 9.1164904 16.3546718
87 29 2 0.41 1.5 9.1164904 15.2
88 30 1 -0.82 1.5 8.3 19.277359
89 30 2 0.41 1.5 9.1164904 19.8546718
90 30 2 0.41 1.5 9.1164904 18.7
91 31 1 -0.82 1.5 8.3 22.777359
92 31 2 0.41 1.5 9.1164904 23.3546718
93 31 2 0.41 1.5 9.1164904 22.2
94 32 1 -0.82 1.5 8.3 26.277359
95 32 2 0.41 1.5 9.1164904 26.8546718
96 32 2 0.41 1.5 9.1164904 25.7
97 33 1 -0.82 1.5 8.3 29.777359
98 33 2 0.41 1.5 9.1164904 30.3546718
99 33 2 0.41 1.5 9.1164904 29.2
100 34 1 -0.82 1.5 8.3 33.277359
101 34 2 0.41 1.5 9.1164904 33.8546718
102 34 2 0.41 1.5 9.1164904 32.7
103 35 1 -0.82 1.5 8.3 36.777359
104 35 2 0.41 1.5 9.1164904 37.3546718
105 35 2 0.41 1.5 9.1164904 36.2
106 36 1 -0.82 1.5 8.3 40.277359
107 36 2 0.41 1.5 9.1164904 40.8546718
108 36 2 0.41 1.5 9.1164904 39.7
109 37 1 -0.82 1.5 11.8 1.777359
110 37 2 0.41 1.5 12.6164904 2.3546718
111 37 2 0.41 1.5 12.6164904 1.2
112 38 1 -0.82 1.5 11.8 5.277359
113 38 2 0.41 1.5 12.6164904 5.8546718
114 38 2 0.41 1.5 12.6164904 4.7
115 39 1 -0.82 1.5 11.8 8.777359
116 39 2 0.41 1.5 12.6164904 9.3546718
117 39 2 0.41 1.5 12.6164904 8.2
118 40 1 -0.82 1.5 11.8 12.277359
119 40 2 0.41 1.5 12.6164904 12.8546718
120 40 2 0.41 1.5 12.6164904 11.7
121 41 1 -0.82 1.5 11.8 15.777359
122 41 2 0.41 1.5 12.6164904 16.3546718
123 41 2 0.41 1.5 12.6164904 15.2
124 42 1 -0.82 1.5 11.8 19.277359
125 42 2 0.41 1.5 12.6164904 19.8546718
126 42 2 0.41 1.5 12.6164904 18.7
127 43 1 -0.82 1.5 11.8 22.777359
128 43 2 0.41 1.5 12.6164904 23.3546718
129 43 2 0.41 1.5 12.6164904 22.2
130 44 1 -0.82 1.5 11.8 26.277359
131 44 2 0.41 1.5 12.6164904 26.8546718
132 44 2 0.41 1.5 12.6164904 25.7
133 45 1 -0.82 1.5 11.8 29.777359
134 45 2 0.41 1.5 12.6164904 30.3546718
135 45 2 0.41 1.5 12.6164904 29.2
136 46 1 -0.82 1.5 11.8 33.277359
137 46 2 0.41 1.5 12.6164904 33.8546718
138 46 2 0.41 1.5 12.6164904 32.7
139 47 1 -0.82 1.5 11.8 36.777359
140 47 2 0.41 1.5 12.6164904 37.3546718
141 47 2 0.41 1.5 12.6164904 36.2
142 48 1 -0.82 1.5 11.8 40.277359
143 48 2 0.41 1.5 12.6164904 40.8546718
144 48 2 0.41 1.5 12.6164904 39.7
145 49 1 -0.82 1.5 15.3 1.777359
146 49 2 0.41 1.5 16.1164904 2.3546718
147 49 2 0.41 1.5 16.1164904 1.2
148 50 1 -0.82 1.5 15.3 5.277359
149 50 2 0.41 1.5 16.1164904 5.8546718
150 50 2 0.41 1.5 16.1164904 4.7
151 51 1 -0.82 1.5 15.3 8.777359
152 51 2 0.41 1.5 16.1164904 9.3546718
153 51 2 0.41 1.5 16.1164904 8.2
154 52 1 -0.82 1.5 15.3 12.277359
155 52 2 0.41 1.5 16.1164904 12.8546718
156 52 2 0.41 1.5 16.1164904 11.7
157 53 1 -0.82 1.5 15.3 15.777359
158 53 2 0.41 1.5 16.1164904 16.3546718
159 53 2 0.41 1.5 16.1164904 15.2
160 54 1 -0.82 1.5 15.3 19.277359
161 54 2 0.41 1.5 16.1164904 19.8546718
162 54 2 0.41 1.5 16.1164904 18.7
163 55 1 -0.82 1.5 15.3 22.777359
164 55 2 0.41 1.5 16.1164904 23.3546718
165 55 2 0.41 1.5 16.1164904 22.2
166 56 1 -0.82 1.5 15.3 26.277359
167 56 2 0.41 1.5 16.1164904 26.8546718
168 56 2 0.41 1.5 16.1164904 25.7
169 57 1 -0.82 1.5 15.3 29.777359
170 57 2 0.41 1.5 16.1164904 30.3546718
171 57 2 0.41 1.5 16.1164904 29.2
172 58 1 -0.82 1.5 15.3 33.277359
173 58 2 0.41 1.5 16.1164904 33.8546718
174 58 2 0.41 1.5 16.1164904 32.7
175 59 1 -0.82 1.5 15.3 36.777359
176 59 2 0.41 1.5 16.1164904 37.3546718
177 59 2 0.41 1.5 16.1164904 36.2
178 60 1 -0.82 1.5 15.3 40.277359
179 60 2 0.41 1.5 16.1164904 40.8546718
180 60 2 0.41 1.5 16.1164904 39.7
181 61 1 -0.82 1.5 18.8 1.777359
182 61 2 0.41 1.5 19.6164904 2.3546718
183 61 2 0.41 1.5 19.6164904 1.2
184 62 1 -0.82 1.5 18.8 5.277359
185 62 2 0.41 1.5 19.6164904 5.8546718
186 62 2 0.41 1.5 19.6164904 4.7
187 63 1 -0.82 1.5 18.8 8.777359
188 63 2 0.41 1.5 19.6164904 9.3546718
189 63 2 0.41 1.5 19.6164904 8.2
190 64 1 -0.82 1.5 18.8 12.277359
191 64 2 0.41 1.5 19.6164904 12.8546718
192 64 2 0.41 1.5 19.6164904 11.7
193 65 1 -0.82 1.5 18.8 15.777359
194 65 2 0.41 1.5 19.6164904 16.3546718
195 65 2 0.41 1.5 19.6164904 15.2
196 66 1 -0.82 1.5 18.8 19.277359
197 66 2 0.41 1.5 19.6164904 19.8546718
198 66 2 0.41 1.5 19.6164904 18.7
199 67 1 -0.82 1.5 18.8 22.777359
200 67 2 0.41 1.5 19.6164904 23.3546718
201 67 2 0.41 1.5 19.6164904 22.2
202 68 1 -0.82 1.5 18.8 26.277359
203 68 2 0.41 1.5 19.6164904 26.8546718
204 68 2 0.41 1.5 19.6164904 25.7
205 69 1 -0.82 1.5 18.8 29.777359
206 69 2 0.41 1.5 19.6164904 30.3546718
207 69 2 0.41 1.5 19.6164904 29.2
208 70 1 -0.82 1.5 18.8 33.277359
209 70 2 0.41 1.5 19.6164904 33.8546718
210 70 2 0.41 1.5 19.6164904 32.7
211 71 1 -0.82 1.5 18.8 36.777359
212 71 2 0.41 1.5 19.6164904 37.3546718
213 71 2 0.41 1.5 19.6164904 36.2
214 72 1 -0.82 1.5 18.8 40.277359
215 72 2 0.41 1.5 19.6164904 40.8546718
216 72 2 0.41 1.5 19.6164904 39.7
217 73 1 -0.82 1.5 22.3 1.777359
218 73 2 0.41 1.5 23.1164904 2.3546718
219 73 2 0.41 1.5 23.1164904 1.2
220 74 1 -0.82 1.5 22.3 5.277359
221 74 2 0.41 1.5 23.1164904 5.8546718
222 74 2 0.41 1.5 23.1164904 4.7
223 75 1 -0.82 1.5 22.3 8.777359
224 75 2 0.41 1.5 23.1164904 9.3546718
225 75 2 0.41 1.5 23.1164904 8.2
226 76 1 -0.82 1.5 22.3 12.277359
227 76 2 0.41 1.5 23.1164904 12.8546718
228 76 2 0.41 1.5 23.1164904 11.7
229 77 1 -0.82 1.5 22.3 15.777359
230 77 2 0.41 1.5 23.1164904 16.3546718
231 77 2 0.41 1.5 23.1164904 15.2
232 78 1 -0.82 1.5 22.3 19.277359
233 78 2 0.41 1.5 23.1164904 19.8546718
234 78 2 0.41 1.5 23.1164904 18.7
235 79 1 -0.82 1.5 22.3 22.777359
236 79 2 0.41 1.5 23.1164904 23.3546718
237 79 2 0.41 1.5 23.1164904 22.2
238 80 1 -0.82 1.5 22.3 26.277359
239 80 2 0.41 1.5 23.1164904 26.8546718
240 80 2 0.41 1.5 23.1164904 25.7
241 81 1 -0.82 1.5 22.3 29.777359
242 81 2 0.41 1.5 23.1164904 30.3546718
243 81 2 0.41 1.5 23.1164904 29.2
244 82 1 -0.82 1.5 22.3 33.277359
245 82 2 0.41 1.5 23.1164904 33.8546718
246 82 2 0.41 1.5 23.1164904 32.7
247 83 1 -0.82 1.5 22.3 36.777359
248 83 2 0.41 1.5 23.1164904 37.3546718
249 83 2 0.41 1.5 23.1164904 36.2
250 84 1 -0.82 1.5 22.3 40.277359
251 84 2 0.41 1.5 23.1164904 40.8546718
252 84 2 0.41 1.5 23.1164904 39.7
253 85 1 -0.82 1.5 25.8 1.777359
254 85 2 0.41 1.5 26.6164904 2.3546718
255 85 2 0.41 1.5 26.6164904 1.2
256 86 1 -0.82 1.5 25.8 5.277359
257 86 2 0.41 1.5 26.6164904 5.8546718
258 86 2 0.41 1.5 26.6164904 4.7
259 87 1 -0.82 1.5 25.8 8.777359
260 87 2 0.41 1.5 26.6164904 9.3546718
261 87 2 0.41 1.5 26.6164904 8.2
262 88 1 -0.82 1.5 25.8 12.277359
263 88 2 0.41 1.5 26.6164904 12.8546718
264 88 2 0.41 1.5 26.6164904 11.7
265 89 1 -0.82 1.5 25.8 15.777359
266 89 2 0.41 1.5 26.6164904 16.3546718
267 89 2 0.41 1.5 26.6164904 15.2
268 90 1 -0.82 1.5 25.8 19.277359
269 90 2 0.41 1.5 26.6164904 19.8546718
270 90 2 0.41 1.5 26.6164904 18.7
271 91 1 -0.82 1.5 25.8 22.777359
272 91 2 0.41 1.5 26.6164904 23.3546718
273 91 2 0.41 1.5 26.6164904 22.2
274 92 1 -0.82 1.5 25.8 26.277359
275 92 2 0.41 1.5 26.6164904 26.8546718
276 92 2 0.41 1.5 26.6164904 25.7
277 93 1 -0.82 1.5 25.8 29.777359
278 93 2 0.41 1.5 26.6164904 30.3546718
279 93 2 0.41 1.5 26.6164904 29.2
280 94 1 -0.82 1.5 25.8 33.277359
281 94 2 0.41 1.5 26.6164904 33.8546718
282 94 2 0.41 1.5 26.6164904 32.7
283 95 1 -0.82 1.5 25.8 36.777359
284 95 2 0.41 1.5 26.6164904 37.3546718
285 95 2 0.41 1.5 26.6164904 36.2
286 96 1 -0.82 1.5 25.8 40.277359
287 96 2 0.41 1.5 26.6164904 40.8546718
288 96 2 0.41 1.5 26.6164904 39.7
289 97 1 -0.82 1.5 29.3 1.777359
290 97 2 0.41 1.5 30.1164904 2.3546718
291 97 2 0.41 1.5 30.1164904 1.2
292 98 1 -0.82 1.5 29.3 5.277359
293 98 2 0.41 1.5 30.1164904 5.8546718
294 98 2 0.41 1.5 30.1164904 4.7
295 99 1 -0.82 1.5 29.3 8.777359
296 99 2 0.41 1.5 30.1164904 9.3546718
297 99 2 0.41 1.5 30.1164904 8.2
298 100 1 -0.82 1.5 29.3 12.277359
299 100 2 0.41 1.5 30.1164904 12.8546718
300 100 2 0.41 1.5 30.1164904 11.7
301 101 1 -0.82 1.5 29.3 15.777359
302 101 2 0.41 1.5 30.1164904 16.3546718
303 101 2 0.41 1.5 30.1164904 15.2
304 102 1 -0.82 1.5 29.3 19.277359
305 102 2 0.41 1.5 30.1164904 19.8546718
306 102 2 0.41 1.5 30.1164904 18.7
307 103 1 -0.82 1.5 29.3 22.777359
308 103 2 0.41 1.5 30.1164904 23.3546718
309 103 2 0.41 1.5 30.1164904 22.2
310 104 1 -0.82 1.5 29.3 26.277359
311 104 2 0.41 1.5 30.1164904 26.8546718
312 104 2 0.41 1.5 30.1164904 25.7
313 105 1 -0.82 1.5 29.3 29.777359
314 105 2 0.41 1.5 30.1164904 30.3546718
315 105 2 0.41 1.5 30.1164904 29.2
316 106 1 -0.82 1.5 29.3 33.277359
317 106 2 0.41 1.5 30.1164904 33.8546718
318 106 2 0.41 1.5 30.1164904 32.7
319 107 1 -0.82 1.5 29.3 36.777359
320 107 2 0.41 1.5 30.1164904 37.3546718
321 107 2 0.41 1.5 30.1164904 36.2
322 108 1 -0.82 1.5 29.3 40.277359
323 108 2 0.41 1.5 30.1164904 40.8546718
324 108 2 0.41 1.5 30.1164904 39.7
325 109 1 -0.82 1.5 32.8 1.777359
326 109 2 0.41 1.5 33.6164904 2.3546718
327 109 2 0.41 1.5 33.6164904 1.2
328 110 1 -0.82 1.5 32.8 5.277359
329 110 2 0.41 1.5 33.6164904 5.8546718
330 110 2 0.41 1.5 33.6164904 4.7
331 111 1 -0.82 1.5 32.8 8.777359
332 111 2 0.41 1.5 33.6164904 9.3546718
333 111 2 0.41 1.5 33.6164904 8.2
334 112 1 -0.82 1.5 32.8 12.277359
335 112 2 0.41 1.5 33.6164904 12.8546718
336 112 2 0.41 1.5 33.6164904 11.7
337 113 1 -0.82 1.5 32.8 15.777359
338 113 2 0.41 1.5 33.6164904 16.3546718
339 113 2 0.41 1.5 33.6164904 15.2
340 114 1 -0.82 1.5 32.8 19.277359
341 114 2 0.41 1.5 33.6164904 19.8546718
342 114 2 0.41 1.5 33.6164904 18.7
343 115 1 -0.82 1.5 32.8 22.777359
344 115 2 0.41 1.5 33.6164904 23.3546718
345 115 2 0.41 1.5 33.6164904 22.2
346 116 1 -0.82 1.5 32.8 26.277359
347 116 2 0.41 1.5 33.6164904 26.8546718
348 116 2 0.41 1.5 33.6164904 25.7
349 117 1 -0.82 1.5 32.8 29.777359
350 117 2 0.41 1.5 33.6164904 30.3546718
351 117 2 0.41 1.5 33.6164904 29.2
352 118 1 -0.82 1.5 32.8 33.277359
353 118 2 0.41 1.5 33.6164904 33.8546718
354 118 2 0.41 1.5 33.6164904 32.7
355 119 1 -0.82 1.5 32.8 36.777359
356 119 2 0.41 1.5 33.6164904 37.3546718
357 119 2 0.41 1.5 33.6164904 36.2
358 120 1 -0.82 1.5 32.8 40.277359
359 120 2 0.41 1.5 33.6164904 40.8546718
360 120 2 0.41 1.5 33.6164904 39.7
361 121 1 -0.82 1.5 36.3 1.777359
362 121 2 0.41 1.5 37.1164904 2.3546718
363 121 2 0.41 1.5 37.1164904 1.2
364 122 1 -0.82 1.5 36.3 5.277359
365 122 2 0.41 1.5 37.1164904 5.8546718
366 122 2 0.41 1.5 37.1164904 4.7
367 123 1 -0.82 1.5 36.3 8.777359
368 123 2 0.41 1.5 37.1164904 9.3546718
369 123 2 0.41 1.5 37.1164904 8.2
370 124 1 -0.82 1.5 36.3 12.277359
371 124 2 0.41 1.5 37.1164904 12.8546718
372 124 2 0.41 1.5 37.1164904 11.7
373 125 1 -0.82 1.5 36.3 15.777359
374 125 2 0.41 1.5 37.1164904 16.3546718
375 125 2 0.41 1.5 37.1164904 15.2
376 126 1 -0.82 1.5 36.3 19.277359
377 126 2 0.41 1.5 37.1164904 19.8546718
378 126 2 0.41 1.5 37.1164904 18.7
379 127 1 -0.82 1.5 36.3 22.777359
380 127 2 0.41 1.5 37.1164904 23.3546718
381 127 2 0.41 1.5 37.1164904 22.2
382 128 1 -0.82 1.5 36.3 26.277359
383 128 2 0.41 1.5 37.1164904 26.8546718
384 128 2 0.41 1.5 37.1164904 25.7
385 129 1 -0.82 1.5 36.3 29.777359
386 129 2 0.41 1.5 37.1164904 30.3546718
387 129 2 0.41 1.5 37.1164904 29.2
388 130 1 -0.82 1.5 36.3 33.277359
389 130 2 0.41 1.5 37.1164904 33.8546718
390 130 2 0.41 1.5 37.1164904 32.7
391 131 1 -0.82 1.5 36.3 36.777359
392 131 2 0.41 1.5 37.1164904 37.3546718
393 131 2 0.41 1.5 37.1164904 36.2
394 132 1 -0.82 1.5 36.3 40.277359
395 132 2 0.41 1.5 37.1164904 40.8546718
396 132 2 0.41 1.5 37.1164904 39.7
397 133 1 -0.82 1.5 39.8 1.777359
398 133 2 0.41 1.5 40.6164904 2.3546718
399 133 2 0.41 1.5 40.6164904 1.2
400 134 1 -0.82 1.5 39.8 5.277359
401 134 2 0.41 1.5 40.6164904 5.8546718
402 134 2 0.41 1.5 40.6164904 4.7
403 135 1 -0.82 1.5 39.8 8.777359
404 135 2 0.41 1.5 40.6164904 9.3546718
405 135 2 0.41 1.5 40.6164904 8.2
406 136 1 -0.82 1.5 39.8 12.277359
407 136 2 0.41 1.5 40.6164904 12.8546718
408 136 2 0.41 1.5 40.6164904 11.7
409 137 1 -0.82 1.5 39.8 15.777359
410 137 2 0.41 1.5 40.6164904 16.3546718
411 137 2 0.41 1.5 40.6164904 15.2
412 138 1 -0.82 1.5 39.8 19.277359
413 138 2 0.41 1.5 40.6164904 19.8546718
414 138 2 0.41 1.5 40.6164904 18.7
415 139 1 -0.82 1.5 39.8 22.777359
416 139 2 0.41 1.5 40.6164904 23.3546718
417 139 2 0.41 1.5 40.6164904 22.2
418 140 1 -0.82 1.5 39.8 26.277359
419 140 2 0.41 1.5 40.6164904 26.8546718
420 140 2 0.41 1.5 40.6164904 25.7
421 141 1 -0.82 1.5 39.8 29.777359
422 141 2 0.41 1.5 40.6164904 30.3546718
423 141 2 0.41 1.5 40.6164904 29.2
424 142 1 -0.82 1.5 39.8 33.277359
425 142 2 0.41 1.5 40.6164904 33.8546718
426 142 2 0.41 1.5 40.6164904 32.7
427 143 1 -0.82 1.5 39.8 36.777359
428 143 2 0.41 1.5 40.6164904 37.3546718
429 143 2 0.41 1.5 40.6164904 36.2
430 144 1 -0.82 1.5 39.8 40.277359
431 144 2 0.41 1.5 40.6164904 40.8546718
432 144 2 0.41 1.5 40.6164904 39.7
433 145 1 -0.82 5.0 1.3 1.777359
434 145 2 0.41 5.0 2.1164904 2.3546718
435 145 2 0.41 5.0 2.1164904 1.2
436 146 1 -0.82 5.0 1.3 5.277359
437 146 2 0.41 5.0 2.1164904 5.8546718
438 146 2 0.41 5.0 2.1164904 4.7
439 147 1 -0.82 5.0 1.3 8.777359
440 147 2 0.41 5.0 2.1164904 9.3546718
441 147 2 0.41 5.0 2.1164904 8.2
442 148 1 -0.82 5.0 1.3 12.277359
443 148 2 0.41 5.0 2.1164904 12.8546718
444 148 2 0.41 5.0 2.1164904 11.7
445 149 1 -0.82 5.0 1.3 15.777359
446 149 2 0.41 5.0 2.1164904 16.3546718
447 149 2 0.41 5.0 2.1164904 15.2
448 150 1 -0.82 5.0 1.3 19.277359
449 150 2 0.41 5.0 2.1164904 19.8546718
450 150 2 0.41 5.0 2.1164904 18.7
451 151 1 -0.82 5.0 1.3 22.777359
452 151 2 0.41 5.0 2.1164904 23.3546718
453 151 2 0.41 5.0 2.1164904 22.2
454 152 1 -0.82 5.0 1.3 26.277359
455 152 2 0.41 5.0 2.1164904 26.8546718
456 152 2 0.41 5.0 2.1164904 25.7
457 153 1 -0.82 5.0 1.3 29.777359
458 153 2 0.41 5.0 2.1164904 30.3546718
459 153 2 0.41 5.0 2.1164904 29.2
460 154 1 -0.82 5.0 1.3 33.277359
461 154 2 0.41 5.0 2.1164904 33.8546718
462 154 2 0.41 5.0 2.1164904 32.7
463 155 1 -0.82 5.0 1.3 36.777359
464 155 2 0.41 5.0 2.1164904 37.3546718
465 155 2 0.41 5.0 2.1164904 36.2
466 156 1 -0.82 5.0 1.3 40.277359
467 156 2 0.41 5.0 2.1164904 40.8546718
468 156 2 0.41 5.0 2.1164904 39.7
469 157 1 -0.82 5.0 4.8 1.777359
470 157 2 0.41 5.0 5.6164904 2.3546718
471 157 2 0.41 5.0 5.6164904 1.2
472 158 1 -0.82 5.0 4.8 5.277359
473 158 2 0.41 5.0 5.6164904 5.8546718
474 158 2 0.41 5.0 5.6164904 4.7
475 159 1 -0.82 5.0 4.8 8.777359
476 159 2 0.41 5.0 5.6164904 9.3546718
477 159 2 0.41 5.0 5.6164904 8.2
478 160 1 -0.82 5.0 4.8 12.277359
479 160 2 0.41 5.0 5.6164904 12.8546718
480 160 2 0.41 5.0 5.6164904 11.7
481 161 1 -0.82 5.0 4.8 15.777359
482 161 2 0.41 5.0 5.6164904 16.3546718
483 161 2 0.41 5.0 5.6164904 15.2
484 162 1 -0.82 5.0 4.8 19.277359
485 162 2 0.41 5.0 5.6164904 19.8546718
486 162 2 0.41 5.0 5.6164904 18.7
487 163 1 -0.82 5.0 4.8 22.777359
488 163 2 0.41 5.0 5.6164904 23.3546718
489 163 2 0.41 5.0 5.6164904 22.2
490 164 1 -0.82 5.0 4.8 26.277359
491 164 2 0.41 5.0 5.6164904 26.8546718
492 164 2 0.41 5.0 5.6164904 25.7
493 165 1 -0.82 5.0 4.8 29.777359
494 165 2 0.41 5.0 5.6164904 30.3546718
495 165 2 0.41 5.0 5.6164904 29.2
496 166 1 -0.82 5.0 4.8 33.277359
497 166 2 0.41 5.0 5.6164904 33.8546718
498 166 2 0.41 5.0 5.6164904 32.7
499 167 1 -0.82 5.0 4.8 36.777359
500 167 2 0.41 5.0 5.6164904 37.3546718
501 167 2 0.41 5.0 5.6164904 36.2
502 168 1 -0.82 5.0 4.8 40.277359
503 168 2 0.41 5.0 5.6164904 40.8546718
504 168 2 0.41 5.0 5.6164904 39.7
505 169 1 -0.82 5.0 8.3 1.777359
506 169 2 0.41 5.0 9.1164904 2.3546718
507 169 2 0.41 5.0 9.1164904 1.2
508 170 1 -0.82 5.0 8.3 5.277359
509 170 2 0.41 5.0 9.1164904 5.8546718
510 170 2 0.41 5.0 9.1164904 4.7
511 171 1 -0.82 5.0 8.3 8.777359
512 171 2 0.41 5.0 9.1164904 9.3546718
513 171 2 0.41 5.0 9.1164904 8.2
514 172 1 -0.82 5.0 8.3 12.277359
515 172 2 0.41 5.0 9.1164904 12.8546718
516 172 2 0.41 5.0 9.1164904 11.7
517 173 1 -0.82 5.0 8.3 15.777359
518 173 2 0.41 5.0 9.1164904 16.3546718
519 173 2 0.41 5.0 9.1164904 15.2
520 174 1 -0.82 5.0 8.3 19.277359
521 174 2 0.41 5.0 9.1164904 19.8546718
522 174 2 0.41 5.0 9.1164904 18.7
523 175 1 -0.82 5.0 8.3 22.777359
524 175 2 0.41 5.0 9.1164904 23.3546718
525 175 2 0.41 5.0 9.1164904 22.2
526 176 1 -0.82 5.0 8.3 26.277359
527 176 2 0.41 5.0 9.1164904 26.8546718
528 176 2 0.41 5.0 9.1164904 25.7
529 177 1 -0.82 5.0 8.3 29.777359
530 177 2 0.41 5.0 9.1164904 30.3546718
531 177 2 0.41 5.0 9.1164904 29.2
532 178 1 -0.82 5.0 8.3 33.277359
533 178 2 0.41 5.0 9.1164904 33.8546718
534 178 2 0.41 5.0 9.1164904 32.7
535 179 1 -0.82 5.0 8.3 36.777359
536 179 2 0.41 5.0 9.1164904 37.3546718
537 179 2 0.41 5.0 9.1164904 36.2
538 180 1 -0.82 5.0 8.3 40.277359
539 180 2 0.41 5.0 9.1164904 40.8546718
540 180 2 0.41 5.0 9.1164904 39.7
541 181 1 -0.82 5.0 11.8 1.777359
542 181 2 0.41 5.0 12.6164904 2.3546718
543 181 2 0.41 5.0 12.6164904 1.2
544 182 1 -0.82 5.0 11.8 5.277359
545 182 2 0.41 5.0 12.6164904 5.8546718
546 182 2 0.41 5.0 12.6164904 4.7
547 183 1 -0.82 5.0 11.8 8.777359
548 183 2 0.41 5.0 12.6164904 9.3546718
549 183 2 0.41 5.0 12.6164904 8.2
550 184 1 -0.82 5.0 11.8 12.277359
551 184 2 0.41 5.0 12.6164904 12.8546718
552 184 2 0.41 5.0 12.6164904 11.7
553 185 1 -0.82 5.0 11.8 15.777359
554 185 2 0.41 5.0 12.6164904 16.3546718
555 185 2 0.41 5.0 12.6164904 15.2
556 186 1 -0.82 5.0 11.8 19.277359
557 186 2 0.41 5.0 12.6164904 19.8546718
558 186 2 0.41 5.0 12.6164904 18.7
559 187 1 -0.82 5.0 11.8 22.777359
560 187 2 0.41 5.0 12.6164904 23.3546718
561 187 2 0.41 5.0 12.6164904 22.2
562 188 1 -0.82 5.0 11.8 26.277359
563 188 2 0.41 5.0 12.6164904 26.8546718
564 188 2 0.41 5.0 12.6164904 25.7
565 189 1 -0.82 5.0 11.8 29.777359
566 189 2 0.41 5.0 12.6164904 30.3546718
567 189 2 0.41 5.0 12.6164904 29.2
568 190 1 -0.82 5.0 11.8 33.277359
569 190 2 0.41 5.0 12.6164904 33.8546718
570 190 2 0.41 5.0 12.6164904 32.7
571 191 1 -0.82 5.0 11.8 36.777359
572 191 2 0.41 5.0 12.6164904 37.3546718
573 191 2 0.41 5.0 12.6164904 36.2
574 192 1 -0.82 5.0 11.8 40.277359
575 192 2 0.41 5.0 12.6164904 40.8546718
576 192 2 0.41 5.0 12.6164904 39.7
577 193 1 -0.82 5.0 15.3 1.777359
578 193 2 0.41 5.0 16.1164904 2.3546718
579 193 2 0.41 5.0 16.1164904 1.2
580 194 1 -0.82 5.0 15.3 5.277359
581 194 2 0.41 5.0 16.1164904 5.8546718
582 194 2 0.41 5.0 16.1164904 4.7
583 195 1 -0.82 5.0 15.3 8.777359
584 195 2 0.41 5.0 16.1164904 9.3546718
585 195 2 0.41 5.0 16.1164904 8.2
586 196 1 -0.82 5.0 15.3 12.277359
587 196 2 0.41 5.0 16.1164904 12.8546718
588 196 2 0.41 5.0 16.1164904 11.7
589 197 1 -0.82 5.0 15.3 15.777359
590 197 2 0.41 5.0 16.1164904 16.3546718
591 197 2 0.41 5.0 16.1164904 15.2
592 198 1 -0.82 5.0 15.3 19.277359
593 198 2 0.41 5.0 16.1164904 19.8546718
594 198 2 0.41 5.0 16.1164904 18.7
595 199 1 -0.82 5.0 15.3 22.777359
596 199 2 0.41 5.0 16.1164904 23.3546718
597 199 2 0.41 5.0 16.1164904 22.2
598 200 1 -0.82 5.0 15.3 26.277359
599 200 2 0.41 5.0 16.1164904 26.8546718
600 200 2 0.41 5.0 16.1164904 25.7
601 201 1 -0.82 5.0 15.3 29.777359
602 201 2 0.41 5.0 16.1164904 30.3546718
603 201 2 0.41 5.0 16.1164904 29.2
604 202 1 -0.82 5.0 15.3 33.277359
605 202 2 0.41 5.0 16.1164904 33.8546718
606 202 2 0.41 5.0 16.1164904 32.7
607 203 1 -0.82 5.0 15.3 36.777359
608 203 2 0.41 5.0 16.1164904 37.3546718
609 203 2 0.41 5.0 16.1164904 36.2
610 204 1 -0.82 5.0 15.3 40.277359
611 204 2 0.41 5.0 16.1164904 40.8546718
612 204 2 0.41 5.0 16.1164904 39.7
613 205 1 -0.82 5.0 18.8 1.777359
614 205 2 0.41 5.0 19.6164904 2.3546718
615 205 2 0.41 5.0 19.6164904 1.2
616 206 1 -0.82 5.0 18.8 5.277359
617 206 2 0.41 5.0 19.6164904 5.8546718
618 206 2 0.41 5.0 19.6164904 4.7
619 207 1 -0.82 5.0 18.8 8.777359
620 207 2 0.41 5.0 19.6164904 9.3546718
621 207 2 0.41 5.0 19.6164904 8.2
622 208 1 -0.82 5.0 18.8 12.277359
623 208 2 0.41 5.0 19.6164904 12.8546718
624 208 2 0.41 5.0 19.6164904 11.7
625 209 1 -0.82 5.0 18.8 15.777359
626 209 2 0.41 5.0 19.6164904 16.3546718
627 209 2 0.41 5.0 19.6164904 15.2
628 210 1 -0.82 5.0 18.8 19.277359
629 210 2 0.41 5.0 19.6164904 19.8546718
630 210 2 0.41 5.0 19.6164904 18.7
631 211 1 -0.82 5.0 18.8 22.777359
632 211 2 0.41 5.0 19.6164904 23.3546718
633 211 2 0.41 5.0 19.6164904 22.2
634 212 1 -0.82 5.0 18.8 26.277359
635 212 2 0.41 5.0 19.6164904 26.8546718
636 212 2 0.41 5.0 19.6164904 25.7
637 213 1 -0.82 5.0 18.8 29.777359
638 213 2 0.41 5.0 19.6164904 30.3546718
639 213 2 0.41 5.0 19.6164904 29.2
640 214 1 -0.82 5.0 18.8 33.277359
641 214 2 0.41 5.0 19.6164904 33.8546718
642 214 2 0.41 5.0 19.6164904 32.7
643 215 1 -0.82 5.0 18.8 36.777359
644 215 2 0.41 5.0 19.6164904 37.3546718
645 215 2 0.41 5.0 19.6164904 36.2
646 216 1 -0.82 5.0 18.8 40.277359
647 216 2 0.41 5.0 19.6164904 40.8546718
648 216 2 0.41 5.0 19.6164904 39.7
649 217 1 -0.82 5.0 22.3 1.777359
650 217 2 0.41 5.0 23.1164904 2.3546718
651 217 2 0.41 5.0 23.1164904 1.2
652 218 1 -0.82 5.0 22.3 5.277359
653 218 2 0.41 5.0 23.1164904 5.8546718
654 218 2 0.41 5.0 23.1164904 4.7
655 219 1 -0.82 5.0 22.3 8.777359
656 219 2 0.41 5.0 23.1164904 9.3546718
657 219 2 0.41 5.0 23.1164904 8.2
658 220 1 -0.82 5.0 22.3 12.277359
659 220 2 0.41 5.0 23.1164904 12.8546718
660 220 2 0.41 5.0 23.1164904 11.7
661 221 1 -0.82 5.0 22.3 15.777359
662 221 2 0.41 5.0 23.1164904 16.3546718
663 221 2 0.41 5.0 23.1164904 15.2
664 222 1 -0.82 5.0 22.3 19.277359
665 222 2 0.41 5.0 23.1164904 19.8546718
666 222 2 0.41 5.0 23.1164904 18.7
667 223 1 -0.82 5.0 22.3 22.777359
668 223 2 0.41 5.0 23.1164904 23.3546718
669 223 2 0.41 5.0 23.1164904 22.2
670 224 1 -0.82 5.0 22.3 26.277359
671 224 2 0.41 5.0 23.1164904 26.8546718
672 224 2 0.41 5.0 23.1164904 25.7
673 225 1 -0.82 5.0 22.3 29.777359
674 225 2 0.41 5.0 23.1164904 30.3546718
675 225 2 0.41 5.0 23.1164904 29.2
676 226 1 -0.82 5.0 22.3 33.277359
677 226 2 0.41 5.0 23.1164904 33.8546718
678 226 2 0.41 5.0 23.1164904 32.7
679 227 1 -0.82 5.0 22.3 36.777359
680 227 2 0.41 5.0 23.1164904 37.3546718
681 227 2 0.41 5.0 23.1164904 36.2
682 228 1 -0.82 5.0 22.3 40.277359
683 228 2 0.41 5.0 23.1164904 40.8546718
684 228 2 0.41 5.0 23.1164904 39.7
685 229 1 -0.82 5.0 25.8 1.777359
686 229 2 0.41 5.0 26.6164904 2.3546718
687 229 2 0.41 5.0 26.6164904 1.2
688 230 1 -0.82 5.0 25.8 5.277359
689 230 2 0.41 5.0 26.6164904 5.8546718
690 230 2 0.41 5.0 26.6164904 4.7
691 231 1 -0.82 5.0 25.8 8.777359
692 231 2 0.41 5.0 26.6164904 9.3546718
693 231 2 0.41 5.0 26.6164904 8.2
694 232 1 -0.82 5.0 25.8 12.277359
695 232 2 0.41 5.0 26.6164904 12.8546718
696 232 2 0.41 5.0 26.6164904 11.7
697 233 1 -0.82 5.0 25.8 15.777359
698 233 2 0.41 5.0 26.6164904 16.3546718
699 233 2 0.41 5.0 26.6164904 15.2
700 234 1 -0.82 5.0 25.8 19.277359
701 234 2 0.41 5.0 26.6164904 19.8546718
702 234 2 0.41 5.0 26.6164904 18.7
703 235 1 -0.82 5.0 25.8 22.777359
704 235 2 0.41 5.0 26.6164904 23.3546718
705 235 2 0.41 5.0 26.6164904 22.2
706 236 1 -0.82 5.0 25.8 26.277359
707 236 2 0.41 5.0 26.6164904 26.8546718
708 236 2 0.41 5.0 26.6164904 25.7
709 237 1 -0.82 5.0 25.8 29.777359
710 237 2 0.41 5.0 26.6164904 30.3546718
711 237 2 0.41 5.0 26.6164904 29.2
712 238 1 -0.82 5.0 25.8 33.277359
713 238 2 0.41 5.0 26.6164904 33.8546718
714 238 2 0.41 5.0 26.6164904 32.7
715 239 1 -0.82 5.0 25.8 36.777359
716 239 2 0.41 5.0 26.6164904 37.3546718
717 239 2 0.41 5.0 26.6164904 36.2
718 240 1 -0.82 5.0 25.8 40.277359
719 240 2 0.41 5.0 26.6164904 40.8546718
720 240 2 0.41 5.0 26.6164904 39.7
721 241 1 -0.82 5.0 29.3 1.777359
722 241 2 0.41 5.0 30.1164904 2.3546718
723 241 2 0.41 5.0 30.1164904 1.2
724 242 1 -0.82 5.0 29.3 5.277359
725 242 2 0.41 5.0 30.1164904 5.8546718
726 242 2 0.41 5.0 30.1164904 4.7
727 243 1 -0.82 5.0 29.3 8.777359
728 243 2 0.41 5.0 30.1164904 9.3546718
729 243 2 0.41 5.0 30.1164904 8.2
730 244 1 -0.82 5.0 29.3 12.277359
731 244 2 0.41 5.0 30.1164904 12.8546718
732 244 2 0.41 5.0 30.1164904 11.7
733 245 1 -0.82 5.0 29.3 15.777359
734 245 2 0.41 5.0 30.1164904 16.3546718
735 245 2 0.41 5.0 30.1164904 15.2
736 246 1 -0.82 5.0 29.3 19.277359
737 246 2 0.41 5.0 30.1164904 19.8546718
738 246 2 0.41 5.0 30.1164904 18.7
739 247 1 -0.82 5.0 29.3 22.777359
740 247 2 0.41 5.0 30.1164904 23.3546718
741 247 2 0.41 5.0 30.1164904 22.2
742 248 1 -0.82 5.0 29.3 26.277359
743 248 2 0.41 5.0 30.1164904 26.8546718
744 248 2 0.41 5.0 30.1164904 25.7
745 249 1 -0.82 5.0 29.3 29.777359
746 249 2 0.41 5.0 30.1164904 30.3546718
747 249 2 0.41 5.0 30.1164904 29.2
748 250 1 -0.82 5.0 29.3 33.277359
749 250 2 0.41 5.0 30.1164904 33.8546718
750 250 2 0.41 5.0 30.1164904 32.7
751 251 1 -0.82 5.0 29.3 36.777359
752 251 2 0.41 5.0 30.1164904 37.3546718
753 251 2 0.41 5.0 30.1164904 36.2
754 252 1 -0.82 5.0 29.3 40.277359
755 252 2 0.41 5.0 30.1164904 40.8546718
756 252 2 0.41 5.0 30.1164904 39.7
757 253 1 -0.82 5.0 32.8 1.777359
758 253 2 0.41 5.0 33.6164904 2.3546718
759 253 2 0.41 5.0 33.6164904 1.2
760 254 1 -0.82 5.0 32.8 5.277359
761 254 2 0.41 5.0 33.6164904 5.8546718
762 254 2 0.41 5.0 33.6164904 4.7
763 255 1 -0.82 5.0 32.8 8.777359
764 255 2 0.41 5.0 33.6164904 9.3546718
765 255 2 0.41 5.0 33.6164904 8.2
766 256 1 -0.82 5.0 32.8 12.277359
767 256 2 0.41 5.0 33.6164904 12.8546718
768 256 2 0.41 5.0 33.6164904 11.7
769 257 1 -0.82 5.0 32.8 15.777359
770 257 2 0.41 5.0 33.6164904 16.3546718
771 257 2 0.41 5.0 33.6164904 15.2
772 258 1 -0.82 5.0 32.8 19.277359
773 258 2 0.41 5.0 33.6164904 19.8546718
774 258 2 0.41 5.0 33.6164904 18.7
775 259 1 -0.82 5.0 32.8 22.777359
776 259 2 0.41 5.0 33.6164904 23.3546718
777 259 2 0.41 5.0 33.6164904 22.2
778 260 1 -0.82 5.0 32.8 26.277359
779 260 2 0.41 5.0 33.6164904 26.8546718
780 260 2 0.41 5.0 33.6164904 25.7
781 261 1 -0.82 5.0 32.8 29.777359
782 261 2 0.41 5.0 33.6164904 30.3546718
783 261 2 0.41 5.0 33.6164904 29.2
784 262 1 -0.82 5.0 32.8 33.277359
785 262 2 0.41 5.0 33.6164904 33.8546718
786 262 2 0.41 5.0 33.6164904 32.7
787 263 1 -0.82 5.0 32.8 36.777359
788 263 2 0.41 5.0 33.6164904 37.3546718
789 263 2 0.41 5.0 33.6164904 36.2
790 264 1 -0.82 5.0 32.8 40.277359
791 264 2 0.41 5.0 33.6164904 40.8546718
792 264 2 0.41 5.0 33.6164904 39.7
793 265 1 -0.82 5.0 36.3 1.777359
794 265 2 0.41 5.0 37.1164904 2.3546718
795 265 2 0.41 5.0 37.1164904 1.2
796 266 1 -0.82 5.0 36.3 5.277359
797 266 2 0.41 5.0 37.1164904 5.8546718
798 266 2 0.41 5.0 37.1164904 4.7
799 267 1 -0.82 5.0 36.3 8.777359
800 267 2 0.41 5.0 37.1164904 9.3546718
801 267 2 0.41 5.0 37.1164904 8.2
802 268 1 -0.82 5.0 36.3 12.277359
803 268 2 0.41 5.0 37.1164904 12.8546718
804 268 2 0.41 5.0 37.1164904 11.7
805 269 1 -0.82 5.0 36.3 15.777359
806 269 2 0.41 5.0 37.1164904 16.3546718
807 269 2 0.41 5.0 37.1164904 15.2
808 270 1 -0.82 5.0 36.3 19.277359
809 270 2 0.41 5.0 37.1164904 19.8546718
810 270 2 0.41 5.0 37.1164904 18.7
811 271 1 -0.82 5.0 36.3 22.777359
812 271 2 0.41 5.0 37.1164904 23.3546718
813 271 2 0.41 5.0 37.1164904 22.2
814 272 1 -0.82 5.0 36.3 26.277359
815 272 2 0.41 5.0 37.1164904 26.8546718
816 272 2 0.41 5.0 37.1164904 25.7
817 273 1 -0.82 5.0 36.3 29.777359
818 273 2 0.41 5.0 37.1164904 30.3546718
819 273 2 0.41 5.0 37.1164904 29.2
820 274 1 -0.82 5.0 36.3 33.277359
821 274 2 0.41 5.0 37.1164904 33.8546718
822 274 2 0.41 5.0 37.1164904 32.7
823 275 1 -0.82 5.0 36.3 36.777359
824 275 2 0.41 5.0 37.1164904 37.3546718
825 275 2 0.41 5.0 37.1164904 36.2
826 276 1 -0.82 5.0 36.3 40.277359