LAMMPS (24 Apr 2013)
WARNING: OMP_NUM_THREADS environment is not set. (../comm.cpp:100)
  using 1 OpenMP thread(s) per MPI task
# ----------------- Init Section -----------------
units           real
atom_style      full
boundary	p p p
pair_style	lj/cut/coul/long 9.8 9.8
pair_modify     mix arithmetic
kspace_style	pppm 1.0e-4
bond_style      harmonic
angle_style     harmonic
dihedral_style  none
improper_style  none

# ----------------- Atom Definition Section -----------------
read_data "cg25.data"
  2 = max bonds/atom
  1 = max angles/atom
  orthogonal box = (0 0 0) to (98 48 48)
  1 by 1 by 1 MPI processor grid
  8521 atoms
  5688 bonds
  2832 angles
  2 = max # of 1-2 neighbors
  2 = max # of 1-3 neighbors
  4 = max # of 1-4 neighbors
  6 = max # of special neighbors

# ----------------- Settings Section -----------------------
# Bond parameters
#           bond-type   k      	r0
# Water
bond_coeff   	1  	200.0   1.0
angle_coeff  	1 	200.0   109.47
# CG25
bond_coeff  	2       72.54   2.5

# LJ Interactions
#             atom1   atom2	epsilon	sigma
pair_coeff   	1 	1 	0.1553  3.166
pair_coeff   	1 	2 	0.0     0.0
pair_coeff 	1 	3 	0.1777 	3.783
pair_coeff   	2 	2 	0.0     0.0
pair_coeff   	2 	3 	0.0     0.0
pair_coeff 	3 	3 	0.2032	4.4

group spc type	1 2
8496 atoms in group spc

# ----------------- Minimize -----------------
# command  	etol    ftol   maxiter  maxeval
#minimize	1.0e-6	1.0e-8	200	2000

# ----------------- Run Section -----------------
# Write initial structure out
dump            icrd all custom 5 system.lammpstrj id mol type x y z ix iy iz
dump_modify     icrd sort id
run             1
WARNING: No fixes defined, atoms won't move (../verlet.cpp:54)
PPPM initialization ...
  G vector (1/distance) = 0.25791
  grid = 40 24 24
  stencil order = 5
  estimated absolute RMS force accuracy = 0.032839
  estimated relative force accuracy = 9.88937e-05
  using double precision FFTs
  3d grid and FFT values/proc = 40500 23040
Memory usage per processor = 21.3245 Mbytes
Step Temp E_pair E_mol TotEng Press 
       0            0   -10236.175    261648.33    251412.16   -1332.6812 
       1            0   -10236.175    261648.33    251412.16   -1332.6812 
Loop time of 0.0441289 on 1 procs (1 MPI x 1 OpenMP) for 1 steps with 8521 atoms

Pair  time (%) = 0.0350351 (79.3927)
Bond  time (%) = 0.000516891 (1.17132)
Kspce time (%) = 0.00838304 (18.9967)
Neigh time (%) = 0 (0)
Comm  time (%) = 0.000106096 (0.240424)
Outpt time (%) = 5.6982e-05 (0.129126)
Other time (%) = 3.0756e-05 (0.0696958)

FFT time (% of Kspce) = 0.00283647 (33.8358)
FFT Gflps 3d (1d only) = 1.63186 2.69306

Nlocal:    8521 ave 8521 max 8521 min
Histogram: 1 0 0 0 0 0 0 0 0 0
Nghost:    12632 ave 12632 max 12632 min
Histogram: 1 0 0 0 0 0 0 0 0 0
Neighs:    1.05956e+06 ave 1.05956e+06 max 1.05956e+06 min
Histogram: 1 0 0 0 0 0 0 0 0 0

Total # of neighbors = 1059558
Ave neighs/atom = 124.347
Ave special neighs/atom = 2.01033
Neighbor list builds = 0
Dangerous builds = 0
