ITEM: TIMESTEP
0
ITEM: NUMBER OF ATOMS
8521
ITEM: BOX BOUNDS pp pp pp
0 98
0 48
0 48
ITEM: ATOMS id mol type x y z ix iy iz 
1 1 1 4 4 4.57736 0 0 0 
2 1 2 4 4.81649 5.15467 0 0 0 
3 1 2 4 4.81649 4 0 0 0 
4 2 1 4 4 8.57736 0 0 0 
5 2 2 4 4.81649 9.15467 0 0 0 
6 2 2 4 4.81649 8 0 0 0 
7 3 1 4 4 12.5774 0 0 0 
8 3 2 4 4.81649 13.1547 0 0 0 
9 3 2 4 4.81649 12 0 0 0 
10 4 1 4 4 16.5774 0 0 0 
11 4 2 4 4.81649 17.1547 0 0 0 
12 4 2 4 4.81649 16 0 0 0 
13 5 1 4 4 20.5774 0 0 0 
14 5 2 4 4.81649 21.1547 0 0 0 
15 5 2 4 4.81649 20 0 0 0 
16 6 1 4 4 24.5774 0 0 0 
17 6 2 4 4.81649 25.1547 0 0 0 
18 6 2 4 4.81649 24 0 0 0 
19 7 1 4 4 28.5774 0 0 0 
20 7 2 4 4.81649 29.1547 0 0 0 
21 7 2 4 4.81649 28 0 0 0 
22 8 1 4 4 32.5774 0 0 0 
23 8 2 4 4.81649 33.1547 0 0 0 
24 8 2 4 4.81649 32 0 0 0 
25 9 1 4 4 36.5774 0 0 0 
26 9 2 4 4.81649 37.1547 0 0 0 
27 9 2 4 4.81649 36 0 0 0 
28 10 1 4 4 40.5774 0 0 0 
29 10 2 4 4.81649 41.1547 0 0 0 
30 10 2 4 4.81649 40 0 0 0 
31 11 1 4 4 44.5774 0 0 0 
32 11 2 4 4.81649 45.1547 0 0 0 
33 11 2 4 4.81649 44 0 0 0 
34 12 1 4 8 4.57736 0 0 0 
35 12 2 4 8.81649 5.15467 0 0 0 
36 12 2 4 8.81649 4 0 0 0 
37 13 1 4 8 8.57736 0 0 0 
38 13 2 4 8.81649 9.15467 0 0 0 
39 13 2 4 8.81649 8 0 0 0 
40 14 1 4 8 12.5774 0 0 0 
41 14 2 4 8.81649 13.1547 0 0 0 
42 14 2 4 8.81649 12 0 0 0 
43 15 1 4 8 16.5774 0 0 0 
44 15 2 4 8.81649 17.1547 0 0 0 
45 15 2 4 8.81649 16 0 0 0 
46 16 1 4 8 20.5774 0 0 0 
47 16 2 4 8.81649 21.1547 0 0 0 
48 16 2 4 8.81649 20 0 0 0 
49 17 1 4 8 24.5774 0 0 0 
50 17 2 4 8.81649 25.1547 0 0 0 
51 17 2 4 8.81649 24 0 0 0 
52 18 1 4 8 28.5774 0 0 0 
53 18 2 4 8.81649 29.1547 0 0 0 
54 18 2 4 8.81649 28 0 0 0 
55 19 1 4 8 32.5774 0 0 0 
56 19 2 4 8.81649 33.1547 0 0 0 
57 19 2 4 8.81649 32 0 0 0 
58 20 1 4 8 36.5774 0 0 0 
59 20 2 4 8.81649 37.1547 0 0 0 
60 20 2 4 8.81649 36 0 0 0 
61 21 1 4 8 40.5774 0 0 0 
62 21 2 4 8.81649 41.1547 0 0 0 
63 21 2 4 8.81649 40 0 0 0 
64 22 1 4 8 44.5774 0 0 0 
65 22 2 4 8.81649 45.1547 0 0 0 
66 22 2 4 8.81649 44 0 0 0 
67 23 1 4 12 4.57736 0 0 0 
68 23 2 4 12.8165 5.15467 0 0 0 
69 23 2 4 12.8165 4 0 0 0 
70 24 1 4 12 8.57736 0 0 0 
71 24 2 4 12.8165 9.15467 0 0 0 
72 24 2 4 12.8165 8 0 0 0 
73 25 1 4 12 12.5774 0 0 0 
74 25 2 4 12.8165 13.1547 0 0 0 
75 25 2 4 12.8165 12 0 0 0 
76 26 1 4 12 16.5774 0 0 0 
77 26 2 4 12.8165 17.1547 0 0 0 
78 26 2 4 12.8165 16 0 0 0 
79 27 1 4 12 20.5774 0 0 0 
80 27 2 4 12.8165 21.1547 0 0 0 
81 27 2 4 12.8165 20 0 0 0 
82 28 1 4 12 24.5774 0 0 0 
83 28 2 4 12.8165 25.1547 0 0 0 
84 28 2 4 12.8165 24 0 0 0 
85 29 1 4 12 28.5774 0 0 0 
86 29 2 4 12.8165 29.1547 0 0 0 
87 29 2 4 12.8165 28 0 0 0 
88 30 1 4 12 32.5774 0 0 0 
89 30 2 4 12.8165 33.1547 0 0 0 
90 30 2 4 12.8165 32 0 0 0 
91 31 1 4 12 36.5774 0 0 0 
92 31 2 4 12.8165 37.1547 0 0 0 
93 31 2 4 12.8165 36 0 0 0 
94 32 1 4 12 40.5774 0 0 0 
95 32 2 4 12.8165 41.1547 0 0 0 
96 32 2 4 12.8165 40 0 0 0 
97 33 1 4 12 44.5774 0 0 0 
98 33 2 4 12.8165 45.1547 0 0 0 
99 33 2 4 12.8165 44 0 0 0 
100 34 1 4 16 4.57736 0 0 0 
101 34 2 4 16.8165 5.15467 0 0 0 
102 34 2 4 16.8165 4 0 0 0 
103 35 1 4 16 8.57736 0 0 0 
104 35 2 4 16.8165 9.15467 0 0 0 
105 35 2 4 16.8165 8 0 0 0 
106 36 1 4 16 12.5774 0 0 0 
107 36 2 4 16.8165 13.1547 0 0 0 
108 36 2 4 16.8165 12 0 0 0 
109 37 1 4 16 16.5774 0 0 0 
110 37 2 4 16.8165 17.1547 0 0 0 
111 37 2 4 16.8165 16 0 0 0 
112 38 1 4 16 20.5774 0 0 0 
113 38 2 4 16.8165 21.1547 0 0 0 
114 38 2 4 16.8165 20 0 0 0 
115 39 1 4 16 24.5774 0 0 0 
116 39 2 4 16.8165 25.1547 0 0 0 
117 39 2 4 16.8165 24 0 0 0 
118 40 1 4 16 28.5774 0 0 0 
119 40 2 4 16.8165 29.1547 0 0 0 
120 40 2 4 16.8165 28 0 0 0 
121 41 1 4 16 32.5774 0 0 0 
122 41 2 4 16.8165 33.1547 0 0 0 
123 41 2 4 16.8165 32 0 0 0 
124 42 1 4 16 36.5774 0 0 0 
125 42 2 4 16.8165 37.1547 0 0 0 
126 42 2 4 16.8165 36 0 0 0 
127 43 1 4 16 40.5774 0 0 0 
128 43 2 4 16.8165 41.1547 0 0 0 
129 43 2 4 16.8165 40 0 0 0 
130 44 1 4 16 44.5774 0 0 0 
131 44 2 4 16.8165 45.1547 0 0 0 
132 44 2 4 16.8165 44 0 0 0 
133 45 1 4 20 4.57736 0 0 0 
134 45 2 4 20.8165 5.15467 0 0 0 
135 45 2 4 20.8165 4 0 0 0 
136 46 1 4 20 8.57736 0 0 0 
137 46 2 4 20.8165 9.15467 0 0 0 
138 46 2 4 20.8165 8 0 0 0 
139 47 1 4 20 12.5774 0 0 0 
140 47 2 4 20.8165 13.1547 0 0 0 
141 47 2 4 20.8165 12 0 0 0 
142 48 1 4 20 16.5774 0 0 0 
143 48 2 4 20.8165 17.1547 0 0 0 
144 48 2 4 20.8165 16 0 0 0 
145 49 1 4 20 20.5774 0 0 0 
146 49 2 4 20.8165 21.1547 0 0 0 
147 49 2 4 20.8165 20 0 0 0 
148 50 1 4 20 24.5774 0 0 0 
149 50 2 4 20.8165 25.1547 0 0 0 
150 50 2 4 20.8165 24 0 0 0 
151 51 1 4 20 28.5774 0 0 0 
152 51 2 4 20.8165 29.1547 0 0 0 
153 51 2 4 20.8165 28 0 0 0 
154 52 1 4 20 32.5774 0 0 0 
155 52 2 4 20.8165 33.1547 0 0 0 
156 52 2 4 20.8165 32 0 0 0 
157 53 1 4 20 36.5774 0 0 0 
158 53 2 4 20.8165 37.1547 0 0 0 
159 53 2 4 20.8165 36 0 0 0 
160 54 1 4 20 40.5774 0 0 0 
161 54 2 4 20.8165 41.1547 0 0 0 
162 54 2 4 20.8165 40 0 0 0 
163 55 1 4 20 44.5774 0 0 0 
164 55 2 4 20.8165 45.1547 0 0 0 
165 55 2 4 20.8165 44 0 0 0 
166 56 1 4 24 4.57736 0 0 0 
167 56 2 4 24.8165 5.15467 0 0 0 
168 56 2 4 24.8165 4 0 0 0 
169 57 1 4 24 8.57736 0 0 0 
170 57 2 4 24.8165 9.15467 0 0 0 
171 57 2 4 24.8165 8 0 0 0 
172 58 1 4 24 12.5774 0 0 0 
173 58 2 4 24.8165 13.1547 0 0 0 
174 58 2 4 24.8165 12 0 0 0 
175 59 1 4 24 16.5774 0 0 0 
176 59 2 4 24.8165 17.1547 0 0 0 
177 59 2 4 24.8165 16 0 0 0 
178 60 1 4 24 20.5774 0 0 0 
179 60 2 4 24.8165 21.1547 0 0 0 
180 60 2 4 24.8165 20 0 0 0 
181 61 1 4 24 24.5774 0 0 0 
182 61 2 4 24.8165 25.1547 0 0 0 
183 61 2 4 24.8165 24 0 0 0 
184 62 1 4 24 28.5774 0 0 0 
185 62 2 4 24.8165 29.1547 0 0 0 
186 62 2 4 24.8165 28 0 0 0 
187 63 1 4 24 32.5774 0 0 0 
188 63 2 4 24.8165 33.1547 0 0 0 
189 63 2 4 24.8165 32 0 0 0 
190 64 1 4 24 36.5774 0 0 0 
191 64 2 4 24.8165 37.1547 0 0 0 
192 64 2 4 24.8165 36 0 0 0 
193 65 1 4 24 40.5774 0 0 0 
194 65 2 4 24.8165 41.1547 0 0 0 
195 65 2 4 24.8165 40 0 0 0 
196 66 1 4 24 44.5774 0 0 0 
197 66 2 4 24.8165 45.1547 0 0 0 
198 66 2 4 24.8165 44 0 0 0 
199 67 1 4 28 4.57736 0 0 0 
200 67 2 4 28.8165 5.15467 0 0 0 
201 67 2 4 28.8165 4 0 0 0 
202 68 1 4 28 8.57736 0 0 0 
203 68 2 4 28.8165 9.15467 0 0 0 
204 68 2 4 28.8165 8 0 0 0 
205 69 1 4 28 12.5774 0 0 0 
206 69 2 4 28.8165 13.1547 0 0 0 
207 69 2 4 28.8165 12 0 0 0 
208 70 1 4 28 16.5774 0 0 0 
209 70 2 4 28.8165 17.1547 0 0 0 
210 70 2 4 28.8165 16 0 0 0 
211 71 1 4 28 20.5774 0 0 0 
212 71 2 4 28.8165 21.1547 0 0 0 
213 71 2 4 28.8165 20 0 0 0 
214 72 1 4 28 24.5774 0 0 0 
215 72 2 4 28.8165 25.1547 0 0 0 
216 72 2 4 28.8165 24 0 0 0 
217 73 1 4 28 28.5774 0 0 0 
218 73 2 4 28.8165 29.1547 0 0 0 
219 73 2 4 28.8165 28 0 0 0 
220 74 1 4 28 32.5774 0 0 0 
221 74 2 4 28.8165 33.1547 0 0 0 
222 74 2 4 28.8165 32 0 0 0 
223 75 1 4 28 36.5774 0 0 0 
224 75 2 4 28.8165 37.1547 0 0 0 
225 75 2 4 28.8165 36 0 0 0 
226 76 1 4 28 40.5774 0 0 0 
227 76 2 4 28.8165 41.1547 0 0 0 
228 76 2 4 28.8165 40 0 0 0 
229 77 1 4 28 44.5774 0 0 0 
230 77 2 4 28.8165 45.1547 0 0 0 
231 77 2 4 28.8165 44 0 0 0 
232 78 1 4 32 4.57736 0 0 0 
233 78 2 4 32.8165 5.15467 0 0 0 
234 78 2 4 32.8165 4 0 0 0 
235 79 1 4 32 8.57736 0 0 0 
236 79 2 4 32.8165 9.15467 0 0 0 
237 79 2 4 32.8165 8 0 0 0 
238 80 1 4 32 12.5774 0 0 0 
239 80 2 4 32.8165 13.1547 0 0 0 
240 80 2 4 32.8165 12 0 0 0 
241 81 1 4 32 16.5774 0 0 0 
242 81 2 4 32.8165 17.1547 0 0 0 
243 81 2 4 32.8165 16 0 0 0 
244 82 1 4 32 20.5774 0 0 0 
245 82 2 4 32.8165 21.1547 0 0 0 
246 82 2 4 32.8165 20 0 0 0 
247 83 1 4 32 24.5774 0 0 0 
248 83 2 4 32.8165 25.1547 0 0 0 
249 83 2 4 32.8165 24 0 0 0 
250 84 1 4 32 28.5774 0 0 0 
251 84 2 4 32.8165 29.1547 0 0 0 
252 84 2 4 32.8165 28 0 0 0 
253 85 1 4 32 32.5774 0 0 0 
254 85 2 4 32.8165 33.1547 0 0 0 
255 85 2 4 32.8165 32 0 0 0 
256 86 1 4 32 36.5774 0 0 0 
257 86 2 4 32.8165 37.1547 0 0 0 
258 86 2 4 32.8165 36 0 0 0 
259 87 1 4 32 40.5774 0 0 0 
260 87 2 4 32.8165 41.1547 0 0 0 
261 87 2 4 32.8165 40 0 0 0 
262 88 1 4 32 44.5774 0 0 0 
263 88 2 4 32.8165 45.1547 0 0 0 
264 88 2 4 32.8165 44 0 0 0 
265 89 1 4 36 4.57736 0 0 0 
266 89 2 4 36.8165 5.15467 0 0 0 
267 89 2 4 36.8165 4 0 0 0 
268 90 1 4 36 8.57736 0 0 0 
269 90 2 4 36.8165 9.15467 0 0 0 
270 90 2 4 36.8165 8 0 0 0 
271 91 1 4 36 12.5774 0 0 0 
272 91 2 4 36.8165 13.1547 0 0 0 
273 91 2 4 36.8165 12 0 0 0 
274 92 1 4 36 16.5774 0 0 0 
275 92 2 4 36.8165 17.1547 0 0 0 
276 92 2 4 36.8165 16 0 0 0 
277 93 1 4 36 20.5774 0 0 0 
278 93 2 4 36.8165 21.1547 0 0 0 
279 93 2 4 36.8165 20 0 0 0 
280 94 1 4 36 24.5774 0 0 0 
281 94 2 4 36.8165 25.1547 0 0 0 
282 94 2 4 36.8165 24 0 0 0 
283 95 1 4 36 28.5774 0 0 0 
284 95 2 4 36.8165 29.1547 0 0 0 
285 95 2 4 36.8165 28 0 0 0 
286 96 1 4 36 32.5774 0 0 0 
287 96 2 4 36.8165 33.1547 0 0 0 
288 96 2 4 36.8165 32 0 0 0 
289 97 1 4 36 36.5774 0 0 0 
290 97 2 4 36.8165 37.1547 0 0 0 
291 97 2 4 36.8165 36 0 0 0 
292 98 1 4 36 40.5774 0 0 0 
293 98 2 4 36.8165 41.1547 0 0 0 
294 98 2 4 36.8165 40 0 0 0 
295 99 1 4 36 44.5774 0 0 0 
296 99 2 4 36.8165 45.1547 0 0 0 
297 99 2 4 36.8165 44 0 0 0 
298 100 1 4 40 4.57736 0 0 0 
299 100 2 4 40.8165 5.15467 0 0 0 
300 100 2 4 40.8165 4 0 0 0 
301 101 1 4 40 8.57736 0 0 0 
302 101 2 4 40.8165 9.15467 0 0 0 
303 101 2 4 40.8165 8 0 0 0 
304 102 1 4 40 12.5774 0 0 0 
305 102 2 4 40.8165 13.1547 0 0 0 
306 102 2 4 40.8165 12 0 0 0 
307 103 1 4 40 16.5774 0 0 0 
308 103 2 4 40.8165 17.1547 0 0 0 
309 103 2 4 40.8165 16 0 0 0 
310 104 1 4 40 20.5774 0 0 0 
311 104 2 4 40.8165 21.1547 0 0 0 
312 104 2 4 40.8165 20 0 0 0 
313 105 1 4 40 24.5774 0 0 0 
314 105 2 4 40.8165 25.1547 0 0 0 
315 105 2 4 40.8165 24 0 0 0 
316 106 1 4 40 28.5774 0 0 0 
317 106 2 4 40.8165 29.1547 0 0 0 
318 106 2 4 40.8165 28 0 0 0 
319 107 1 4 40 32.5774 0 0 0 
320 107 2 4 40.8165 33.1547 0 0 0 
321 107 2 4 40.8165 32 0 0 0 
322 108 1 4 40 36.5774 0 0 0 
323 108 2 4 40.8165 37.1547 0 0 0 
324 108 2 4 40.8165 36 0 0 0 
325 109 1 4 40 40.5774 0 0 0 
326 109 2 4 40.8165 41.1547 0 0 0 
327 109 2 4 40.8165 40 0 0 0 
328 110 1 4 40 44.5774 0 0 0 
329 110 2 4 40.8165 45.1547 0 0 0 
330 110 2 4 40.8165 44 0 0 0 
331 111 1 4 44 4.57736 0 0 0 
332 111 2 4 44.8165 5.15467 0 0 0 
333 111 2 4 44.8165 4 0 0 0 
334 112 1 4 44 8.57736 0 0 0 
335 112 2 4 44.8165 9.15467 0 0 0 
336 112 2 4 44.8165 8 0 0 0 
337 113 1 4 44 12.5774 0 0 0 
338 113 2 4 44.8165 13.1547 0 0 0 
339 113 2 4 44.8165 12 0 0 0 
340 114 1 4 44 16.5774 0 0 0 
341 114 2 4 44.8165 17.1547 0 0 0 
342 114 2 4 44.8165 16 0 0 0 
343 115 1 4 44 20.5774 0 0 0 
344 115 2 4 44.8165 21.1547 0 0 0 
345 115 2 4 44.8165 20 0 0 0 
346 116 1 4 44 24.5774 0 0 0 
347 116 2 4 44.8165 25.1547 0 0 0 
348 116 2 4 44.8165 24 0 0 0 
349 117 1 4 44 28.5774 0 0 0 
350 117 2 4 44.8165 29.1547 0 0 0 
351 117 2 4 44.8165 28 0 0 0 
352 118 1 4 44 32.5774 0 0 0 
353 118 2 4 44.8165 33.1547 0 0 0 
354 118 2 4 44.8165 32 0 0 0 
355 119 1 4 44 36.5774 0 0 0 
356 119 2 4 44.8165 37.1547 0 0 0 
357 119 2 4 44.8165 36 0 0 0 
358 120 1 4 44 40.5774 0 0 0 
359 120 2 4 44.8165 41.1547 0 0 0 
360 120 2 4 44.8165 40 0 0 0 
361 121 1 4 44 44.5774 0 0 0 
362 121 2 4 44.8165 45.1547 0 0 0 
363 121 2 4 44.8165 44 0 0 0 
364 122 1 8 4 4.57736 0 0 0 
365 122 2 8 4.81649 5.15467 0 0 0 
366 122 2 8 4.81649 4 0 0 0 
367 123 1 8 4 8.57736 0 0 0 
368 123 2 8 4.81649 9.15467 0 0 0 
369 123 2 8 4.81649 8 0 0 0 
370 124 1 8 4 12.5774 0 0 0 
371 124 2 8 4.81649 13.1547 0 0 0 
372 124 2 8 4.81649 12 0 0 0 
373 125 1 8 4 16.5774 0 0 0 
374 125 2 8 4.81649 17.1547 0 0 0 
375 125 2 8 4.81649 16 0 0 0 
376 126 1 8 4 20.5774 0 0 0 
377 126 2 8 4.81649 21.1547 0 0 0 
378 126 2 8 4.81649 20 0 0 0 
379 127 1 8 4 24.5774 0 0 0 
380 127 2 8 4.81649 25.1547 0 0 0 
381 127 2 8 4.81649 24 0 0 0 
382 128 1 8 4 28.5774 0 0 0 
383 128 2 8 4.81649 29.1547 0 0 0 
384 128 2 8 4.81649 28 0 0 0 
385 129 1 8 4 32.5774 0 0 0 
386 129 2 8 4.81649 33.1547 0 0 0 
387 129 2 8 4.81649 32 0 0 0 
388 130 1 8 4 36.5774 0 0 0 
389 130 2 8 4.81649 37.1547 0 0 0 
390 130 2 8 4.81649 36 0 0 0 
391 131 1 8 4 40.5774 0 0 0 
392 131 2 8 4.81649 41.1547 0 0 0 
393 131 2 8 4.81649 40 0 0 0 
394 132 1 8 4 44.5774 0 0 0 
395 132 2 8 4.81649 45.1547 0 0 0 
396 132 2 8 4.81649 44 0 0 0 
397 133 1 8 8 4.57736 0 0 0 
398 133 2 8 8.81649 5.15467 0 0 0 
399 133 2 8 8.81649 4 0 0 0 
400 134 1 8 8 8.57736 0 0 0 
401 134 2 8 8.81649 9.15467 0 0 0 
402 134 2 8 8.81649 8 0 0 0 
403 135 1 8 8 12.5774 0 0 0 
404 135 2 8 8.81649 13.1547 0 0 0 
405 135 2 8 8.81649 12 0 0 0 
406 136 1 8 8 16.5774 0 0 0 
407 136 2 8 8.81649 17.1547 0 0 0 
408 136 2 8 8.81649 16 0 0 0 
409 137 1 8 8 20.5774 0 0 0 
410 137 2 8 8.81649 21.1547 0 0 0 
411 137 2 8 8.81649 20 0 0 0 
412 138 1 8 8 24.5774 0 0 0 
413 138 2 8 8.81649 25.1547 0 0 0 
414 138 2 8 8.81649 24 0 0 0 
415 139 1 8 8 28.5774 0 0 0 
416 139 2 8 8.81649 29.1547 0 0 0 
417 139 2 8 8.81649 28 0 0 0 
418 140 1 8 8 32.5774 0 0 0 
419 140 2 8 8.81649 33.1547 0 0 0 
420 140 2 8 8.81649 32 0 0 0 
421 141 1 8 8 36.5774 0 0 0 
422 141 2 8 8.81649 37.1547 0 0 0 
423 141 2 8 8.81649 36 0 0 0 
424 142 1 8 8 40.5774 0 0 0 
425 142 2 8 8.81649 41.1547 0 0 0 
426 142 2 8 8.81649 40 0 0 0 
427 143 1 8 8 44.5774 0 0 0 
428 143 2 8 8.81649 45.1547 0 0 0 
429 143 2 8 8.81649 44 0 0 0 
430 144 1 8 12 4.57736 0 0 0 
431 144 2 8 12.8165 5.15467 0 0 0 
432 144 2 8 12.8165 4 0 0 0 
433 145 1 8 12 8.57736 0 0 0 
434 145 2 8 12.8165 9.15467 0 0 0 
435 145 2 8 12.8165 8 0 0 0 
436 146 1 8 12 12.5774 0 0 0 
437 146 2 8 12.8165 13.1547 0 0 0 
438 146 2 8 12.8165 12 0 0 0 
439 147 1 8 12 16.5774 0 0 0 
440 147 2 8 12.8165 17.1547 0 0 0 
441 147 2 8 12.8165 16 0 0 0 
442 148 1 8 12 20.5774 0 0 0 
443 148 2 8 12.8165 21.1547 0 0 0 
444 148 2 8 12.8165 20 0 0 0 
445 149 1 8 12 24.5774 0 0 0 
446 149 2 8 12.8165 25.1547 0 0 0 
447 149 2 8 12.8165 24 0 0 0 
448 150 1 8 12 28.5774 0 0 0 
449 150 2 8 12.8165 29.1547 0 0 0 
450 150 2 8 12.8165 28 0 0 0 
451 151 1 8 12 32.5774 0 0 0 
452 151 2 8 12.8165 33.1547 0 0 0 
453 151 2 8 12.8165 32 0 0 0 
454 152 1 8 12 36.5774 0 0 0 
455 152 2 8 12.8165 37.1547 0 0 0 
456 152 2 8 12.8165 36 0 0 0 
457 153 1 8 12 40.5774 0 0 0 
458 153 2 8 12.8165 41.1547 0 0 0 
459 153 2 8 12.8165 40 0 0 0 
460 154 1 8 12 44.5774 0 0 0 
461 154 2 8 12.8165 45.1547 0 0 0 
462 154 2 8 12.8165 44 0 0 0 
463 155 1 8 16 4.57736 0 0 0 
464 155 2 8 16.8165 5.15467 0 0 0 
465 155 2 8 16.8165 4 0 0 0 
466 156 1 8 16 8.57736 0 0 0 
467 156 2 8 16.8165 9.15467 0 0 0 
468 156 2 8 16.8165 8 0 0 0 
469 157 1 8 16 12.5774 0 0 0 
470 157 2 8 16.8165 13.1547 0 0 0 
471 157 2 8 16.8165 12 0 0 0 
472 158 1 8 16 16.5774 0 0 0 
473 158 2 8 16.8165 17.1547 0 0 0 
474 158 2 8 16.8165 16 0 0 0 
475 159 1 8 16 20.5774 0 0 0 
476 159 2 8 16.8165 21.1547 0 0 0 
477 159 2 8 16.8165 20 0 0 0 
478 160 1 8 16 24.5774 0 0 0 
479 160 2 8 16.8165 25.1547 0 0 0 
480 160 2 8 16.8165 24 0 0 0 
481 161 1 8 16 28.5774 0 0 0 
482 161 2 8 16.8165 29.1547 0 0 0 
483 161 2 8 16.8165 28 0 0 0 
484 162 1 8 16 32.5774 0 0 0 
485 162 2 8 16.8165 33.1547 0 0 0 
486 162 2 8 16.8165 32 0 0 0 
487 163 1 8 16 36.5774 0 0 0 
488 163 2 8 16.8165 37.1547 0 0 0 
489 163 2 8 16.8165 36 0 0 0 
490 164 1 8 16 40.5774 0 0 0 
491 164 2 8 16.8165 41.1547 0 0 0 
492 164 2 8 16.8165 40 0 0 0 
493 165 1 8 16 44.5774 0 0 0 
494 165 2 8 16.8165 45.1547 0 0 0 
495 165 2 8 16.8165 44 0 0 0 
496 166 1 8 20 4.57736 0 0 0 
497 166 2 8 20.8165 5.15467 0 0 0 
498 166 2 8 20.8165 4 0 0 0 
499 167 1 8 20 8.57736 0 0 0 
500 167 2 8 20.8165 9.15467 0 0 0 
501 167 2 8 20.8165 8 0 0 0 
502 168 1 8 20 12.5774 0 0 0 
503 168 2 8 20.8165 13.1547 0 0 0 
504 168 2 8 20.8165 12 0 0 0 
505 169 1 8 20 16.5774 0 0 0 
506 169 2 8 20.8165 17.1547 0 0 0 
507 169 2 8 20.8165 16 0 0 0 
508 170 1 8 20 20.5774 0 0 0 
509 170 2 8 20.8165 21.1547 0 0 0 
510 170 2 8 20.8165 20 0 0 0 
511 171 1 8 20 24.5774 0 0 0 
512 171 2 8 20.8165 25.1547 0 0 0 
513 171 2 8 20.8165 24 0 0 0 
514 172 1 8 20 28.5774 0 0 0 
515 172 2 8 20.8165 29.1547 0 0 0 
516 172 2 8 20.8165 28 0 0 0 
517 173 1 8 20 32.5774 0 0 0 
518 173 2 8 20.8165 33.1547 0 0 0 
519 173 2 8 20.8165 32 0 0 0 
520 174 1 8 20 36.5774 0 0 0 
521 174 2 8 20.8165 37.1547 0 0 0 
522 174 2 8 20.8165 36 0 0 0 
523 175 1 8 20 40.5774 0 0 0 
524 175 2 8 20.8165 41.1547 0 0 0 
525 175 2 8 20.8165 40 0 0 0 
526 176 1 8 20 44.5774 0 0 0 
527 176 2 8 20.8165 45.1547 0 0 0 
528 176 2 8 20.8165 44 0 0 0 
529 177 1 8 24 4.57736 0 0 0 
530 177 2 8 24.8165 5.15467 0 0 0 
531 177 2 8 24.8165 4 0 0 0 
532 178 1 8 24 8.57736 0 0 0 
533 178 2 8 24.8165 9.15467 0 0 0 
534 178 2 8 24.8165 8 0 0 0 
535 179 1 8 24 12.5774 0 0 0 
536 179 2 8 24.8165 13.1547 0 0 0 
537 179 2 8 24.8165 12 0 0 0 
538 180 1 8 24 16.5774 0 0 0 
539 180 2 8 24.8165 17.1547 0 0 0 
540 180 2 8 24.8165 16 0 0 0 
541 181 1 8 24 20.5774 0 0 0 
542 181 2 8 24.8165 21.1547 0 0 0 
543 181 2 8 24.8165 20 0 0 0 
544 182 1 8 24 24.5774 0 0 0 
545 182 2 8 24.8165 25.1547 0 0 0 
546 182 2 8 24.8165 24 0 0 0 
547 183 1 8 24 28.5774 0 0 0 
548 183 2 8 24.8165 29.1547 0 0 0 
549 183 2 8 24.8165 28 0 0 0 
550 184 1 8 24 32.5774 0 0 0 
551 184 2 8 24.8165 33.1547 0 0 0 
552 184 2 8 24.8165 32 0 0 0 
553 185 1 8 24 36.5774 0 0 0 
554 185 2 8 24.8165 37.1547 0 0 0 
555 185 2 8 24.8165 36 0 0 0 
556 186 1 8 24 40.5774 0 0 0 
557 186 2 8 24.8165 41.1547 0 0 0 
558 186 2 8 24.8165 40 0 0 0 
559 187 1 8 24 44.5774 0 0 0 
560 187 2 8 24.8165 45.1547 0 0 0 
561 187 2 8 24.8165 44 0 0 0 
562 188 1 8 28 4.57736 0 0 0 
563 188 2 8 28.8165 5.15467 0 0 0 
564 188 2 8 28.8165 4 0 0 0 
565 189 1 8 28 8.57736 0 0 0 
566 189 2 8 28.8165 9.15467 0 0 0 
567 189 2 8 28.8165 8 0 0 0 
568 190 1 8 28 12.5774 0 0 0 
569 190 2 8 28.8165 13.1547 0 0 0 
570 190 2 8 28.8165 12 0 0 0 
571 191 1 8 28 16.5774 0 0 0 
572 191 2 8 28.8165 17.1547 0 0 0 
573 191 2 8 28.8165 16 0 0 0 
574 192 1 8 28 20.5774 0 0 0 
575 192 2 8 28.8165 21.1547 0 0 0 
576 192 2 8 28.8165 20 0 0 0 
577 193 1 8 28 24.5774 0 0 0 
578 193 2 8 28.8165 25.1547 0 0 0 
579 193 2 8 28.8165 24 0 0 0 
580 194 1 8 28 28.5774 0 0 0 
581 194 2 8 28.8165 29.1547 0 0 0 
582 194 2 8 28.8165 28 0 0 0 
583 195 1 8 28 32.5774 0 0 0 
584 195 2 8 28.8165 33.1547 0 0 0 
585 195 2 8 28.8165 32 0 0 0 
586 196 1 8 28 36.5774 0 0 0 
587 196 2 8 28.8165 37.1547 0 0 0 
588 196 2 8 28.8165 36 0 0 0 
589 197 1 8 28 40.5774 0 0 0 
590 197 2 8 28.8165 41.1547 0 0 0 
591 197 2 8 28.8165 40 0 0 0 
592 198 1 8 28 44.5774 0 0 0 
593 198 2 8 28.8165 45.1547 0 0 0 
594 198 2 8 28.8165 44 0 0 0 
595 199 1 8 32 4.57736 0 0 0 
596 199 2 8 32.8165 5.15467 0 0 0 
597 199 2 8 32.8165 4 0 0 0 
598 200 1 8 32 8.57736 0 0 0 
599 200 2 8 32.8165 9.15467 0 0 0 
600 200 2 8 32.8165 8 0 0 0 
601 201 1 8 32 12.5774 0 0 0 
602 201 2 8 32.8165 13.1547 0 0 0 
603 201 2 8 32.8165 12 0 0 0 
604 202 1 8 32 16.5774 0 0 0 
605 202 2 8 32.8165 17.1547 0 0 0 
606 202 2 8 32.8165 16 0 0 0 
607 203 1 8 32 20.5774 0 0 0 
608 203 2 8 32.8165 21.1547 0 0 0 
609 203 2 8 32.8165 20 0 0 0 
610 204 1 8 32 24.5774 0 0 0 
611 204 2 8 32.8165 25.1547 0 0 0 
612 204 2 8 32.8165 24 0 0 0 
613 205 1 8 32 28.5774 0 0 0 
614 205 2 8 32.8165 29.1547 0 0 0 
615 205 2 8 32.8165 28 0 0 0 
616 206 1 8 32 32.5774 0 0 0 
617 206 2 8 32.8165 33.1547 0 0 0 
618 206 2 8 32.8165 32 0 0 0 
619 207 1 8 32 36.5774 0 0 0 
620 207 2 8 32.8165 37.1547 0 0 0 
621 207 2 8 32.8165 36 0 0 0 
622 208 1 8 32 40.5774 0 0 0 
623 208 2 8 32.8165 41.1547 0 0 0 
624 208 2 8 32.8165 40 0 0 0 
625 209 1 8 32 44.5774 0 0 0 
626 209 2 8 32.8165 45.1547 0 0 0 
627 209 2 8 32.8165 44 0 0 0 
628 210 1 8 36 4.57736 0 0 0 
629 210 2 8 36.8165 5.15467 0 0 0 
630 210 2 8 36.8165 4 0 0 0 
631 211 1 8 36 8.57736 0 0 0 
632 211 2 8 36.8165 9.15467 0 0 0 
633 211 2 8 36.8165 8 0 0 0 
634 212 1 8 36 12.5774 0 0 0 
635 212 2 8 36.8165 13.1547 0 0 0 
636 212 2 8 36.8165 12 0 0 0 
637 213 1 8 36 16.5774 0 0 0 
638 213 2 8 36.8165 17.1547 0 0 0 
639 213 2 8 36.8165 16 0 0 0 
640 214 1 8 36 20.5774 0 0 0 
641 214 2 8 36.8165 21.1547 0 0 0 
642 214 2 8 36.8165 20 0 0 0 
643 215 1 8 36 24.5774 0 0 0 
644 215 2 8 36.8165 25.1547 0 0 0 
645 215 2 8 36.8165 24 0 0 0 
646 216 1 8 36 28.5774 0 0 0 
647 216 2 8 36.8165 29.1547 0 0 0 
648 216 2 8 36.8165 28 0 0 0 
649 217 1 8 36 32.5774 0 0 0 
650 217 2 8 36.8165 33.1547 0 0 0 
651 217 2 8 36.8165 32 0 0 0 
652 218 1 8 36 36.5774 0 0 0 
653 218 2 8 36.8165 37.1547 0 0 0 
654 218 2 8 36.8165 36 0 0 0 
655 219 1 8 36 40.5774 0 0 0 
656 219 2 8 36.8165 41.1547 0 0 0 
657 219 2 8 36.8165 40 0 0 0 
658 220 1 8 36 44.5774 0 0 0 
659 220 2 8 36.8165 45.1547 0 0 0 
660 220 2 8 36.8165 44 0 0 0 
661 221 1 8 40 4.57736 0 0 0 
662 221 2 8 40.8165 5.15467 0 0 0 
663 221 2 8 40.8165 4 0 0 0 
664 222 1 8 40 8.57736 0 0 0 
665 222 2 8 40.8165 9.15467 0 0 0 
666 222 2 8 40.8165 8 0 0 0 
667 223 1 8 40 12.5774 0 0 0 
668 223 2 8 40.8165 13.1547 0 0 0 
669 223 2 8 40.8165 12 0 0 0 
670 224 1 8 40 16.5774 0 0 0 
671 224 2 8 40.8165 17.1547 0 0 0 
672 224 2 8 40.8165 16 0 0 0 
673 225 1 8 40 20.5774 0 0 0 
674 225 2 8 40.8165 21.1547 0 0 0 
675 225 2 8 40.8165 20 0 0 0 
676 226 1 8 40 24.5774 0 0 0 
677 226 2 8 40.8165 25.1547 0 0 0 
678 226 2 8 40.8165 24 0 0 0 
679 227 1 8 40 28.5774 0 0 0 
680 227 2 8 40.8165 29.1547 0 0 0 
681 227 2 8 40.8165 28 0 0 0 
682 228 1 8 40 32.5774 0 0 0 
683 228 2 8 40.8165 33.1547 0 0 0 
684 228 2 8 40.8165 32 0 0 0 
685 229 1 8 40 36.5774 0 0 0 
686 229 2 8 40.8165 37.1547 0 0 0 
687 229 2 8 40.8165 36 0 0 0 
688 230 1 8 40 40.5774 0 0 0 
689 230 2 8 40.8165 41.1547 0 0 0 
690 230 2 8 40.8165 40 0 0 0 
691 231 1 8 40 44.5774 0 0 0 
692 231 2 8 40.8165 45.1547 0 0 0 
693 231 2 8 40.8165 44 0 0 0 
694 232 1 8 44 4.57736 0 0 0 
695 232 2 8 44.8165 5.15467 0 0 0 
696 232 2 8 44.8165 4 0 0 0 
697 233 1 8 44 8.57736 0 0 0 
698 233 2 8 44.8165 9.15467 0 0 0 
699 233 2 8 44.8165 8 0 0 0 
700 234 1 8 44 12.5774 0 0 0 
701 234 2 8 44.8165 13.1547 0 0 0 
702 234 2 8 44.8165 12 0 0 0 
703 235 1 8 44 16.5774 0 0 0 
704 235 2 8 44.8165 17.1547 0 0 0 
705 235 2 8 44.8165 16 0 0 0 
706 236 1 8 44 20.5774 0 0 0 
707 236 2 8 44.8165 21.1547 0 0 0 
708 236 2 8 44.8165 20 0 0 0 
709 237 1 8 44 24.5774 0 0 0 
710 237 2 8 44.8165 25.1547 0 0 0 
711 237 2 8 44.8165 24 0 0 0 
712 238 1 8 44 28.5774 0 0 0 
713 238 2 8 44.8165 29.1547 0 0 0 
714 238 2 8 44.8165 28 0 0 0 
715 239 1 8 44 32.5774 0 0 0 
716 239 2 8 44.8165 33.1547 0 0 0 
717 239 2 8 44.8165 32 0 0 0 
718 240 1 8 44 36.5774 0 0 0 
719 240 2 8 44.8165 37.1547 0 0 0 
720 240 2 8 44.8165 36 0 0 0 
721 241 1 8 44 40.5774 0 0 0 
722 241 2 8 44.8165 41.1547 0 0 0 
723 241 2 8 44.8165 40 0 0 0 
724 242 1 8 44 44.5774 0 0 0 
725 242 2 8 44.8165 45.1547 0 0 0 
726 242 2 8 44.8165 44 0 0 0 
727 243 1 12 4 4.57736 0 0 0 
728 243 2 12 4.81649 5.15467 0 0 0 
729 243 2 12 4.81649 4 0 0 0 
730 244 1 12 4 8.57736 0 0 0 
731 244 2 12 4.81649 9.15467 0 0 0 
732 244 2 12 4.81649 8 0 0 0 
733 245 1 12 4 12.5774 0 0 0 
734 245 2 12 4.81649 13.1547 0 0 0 
735 245 2 12 4.81649 12 0 0 0 
736 246 1 12 4 16.5774 0 0 0 
737 246 2 12 4.81649 17.1547 0 0 0 
738 246 2 12 4.81649 16 0 0 0 
739 247 1 12 4 20.5774 0 0 0 
740 247 2 12 4.81649 21.1547 0 0 0 
741 247 2 12 4.81649 20 0 0 0 
742 248 1 12 4 24.5774 0 0 0 
743 248 2 12 4.81649 25.1547 0 0 0 
744 248 2 12 4.81649 24 0 0 0 
745 249 1 12 4 28.5774 0 0 0 
746 249 2 12 4.81649 29.1547 0 0 0 
747 249 2 12 4.81649 28 0 0 0 
748 250 1 12 4 32.5774 0 0 0 
749 250 2 12 4.81649 33.1547 0 0 0 
750 250 2 12 4.81649 32 0 0 0 
751 251 1 12 4 36.5774 0 0 0 
752 251 2 12 4.81649 37.1547 0 0 0 
753 251 2 12 4.81649 36 0 0 0 
754 252 1 12 4 40.5774 0 0 0 
755 252 2 12 4.81649 41.1547 0 0 0 
756 252 2 12 4.81649 40 0 0 0 
757 253 1 12 4 44.5774 0 0 0 
758 253 2 12 4.81649 45.1547 0 0 0 
759 253 2 12 4.81649 44 0 0 0 
760 254 1 12 8 4.57736 0 0 0 
761 254 2 12 8.81649 5.15467 0 0 0 
762 254 2 12 8.81649 4 0 0 0 
763 255 1 12 8 8.57736 0 0 0 
764 255 2 12 8.81649 9.15467 0 0 0 
765 255 2 12 8.81649 8 0 0 0 
766 256 1 12 8 12.5774 0 0 0 
767 256 2 12 8.81649 13.1547 0 0 0 
768 256 2 12 8.81649 12 0 0 0 
769 257 1 12 8 16.5774 0 0 0 
770 257 2 12 8.81649 17.1547 0 0 0 
771 257 2 12 8.81649 16 0 0 0 
772 258 1 12 8 20.5774 0 0 0 
773 258 2 12 8.81649 21.1547 0 0 0 
774 258 2 12 8.81649 20 0 0 0 
775 259 1 12 8 24.5774 0 0 0 
776 259 2 12 8.81649 25.1547 0 0 0 
777 259 2 12 8.81649 24 0 0 0 
778 260 1 12 8 28.5774 0 0 0 
779 260 2 12 8.81649 29.1547 0 0 0 
780 260 2 12 8.81649 28 0 0 0 
781 261 1 12 8 32.5774 0 0 0 
782 261 2 12 8.81649 33.1547 0 0 0 
783 261 2 12 8.81649 32 0 0 0 
784 262 1 12 8 36.5774 0 0 0 
785 262 2 12 8.81649 37.1547 0 0 0 
786 262 2 12 8.81649 36 0 0 0 
787 263 1 12 8 40.5774 0 0 0 
788 263 2 12 8.81649 41.1547 0 0 0 
789 263 2 12 8.81649 40 0 0 0 
790 264 1 12 8 44.5774 0 0 0 
791 264 2 12 8.81649 45.1547 0 0 0 
792 264 2 12 8.81649 44 0 0 0 
793 265 1 12 12 4.57736 0 0 0 
794 265 2 12 12.8165 5.15467 0 0 0 
795 265 2 12 12.8165 4 0 0 0 
796 266 1 12 12 8.57736 0 0 0 
797 266 2 12 12.8165 9.15467 0 0 0 
798 266 2 12 12.8165 8 0 0 0 
799 267 1 12 12 12.5774 0 0 0 
800 267 2 12 12.8165 13.1547 0 0 0 
801 267 2 12 12.8165 12 0 0 0 
802 268 1 12 12 16.5774 0 0 0 
803 268 2 12 12.8165 17.1547 0 0 0 
804 268 2 12 12.8165 16 0 0 0 
805 269 1 12 12 20.5774 0 0 0 
806 269 2 12 12.8165 21.1547 0 0 0 
807 269 2 12 12.8165 20 0 0 0 
808 270 1 12 12 24.5774 0 0 0 
809 270 2 12 12.8165 25.1547 0 0 0 
810 270 2 12 12.8165 24 0 0 0 
811 271 1 12 12 28.5774 0 0 0 
812 271 2 12 12.8165 29.1547 0 0 0 
813 271 2 12 12.8165 28 0 0 0 
814 272 1 12 12 32.5774 0 0 0 
815 272 2 12 12.8165 33.1547 0 0 0 
816 272 2 12 12.8165 32 0 0 0 
817 273 1 12 12 36.5774 0 0 0 
818 273 2 12 12.8165 37.1547 0 0 0 
819 273 2 12 12.8165 36 0 0 0 
820 274 1 12 12 40.5774 0 0 0 
821 274 2 12 12.8165 41.1547 0 0 0 
822 274 2 12 12.8165 40 0 0 0 
823 275 1 12 12 44.5774 0 0 0 
824 275 2 12 12.8165 45.1547 0 0 0 
825 275 2 12 12.8165 44 0 0 0 
826 276 1 12 16 4.57736 0 0 0 
827 276 2 12 16.8165 5.15467 0 0 0 
828 276 2 12 16.8165 4 0 0 0 
829 277 1 12 16 8.57736 0 0 0 
830 277 2 12 16.8165 9.15467 0 0 0 
831 277 2 12 16.8165 8 0 0 0 
832 278 1 12 16 12.5774 0 0 0 
833 278 2 12 16.8165 13.1547 0 0 0 
834 278 2 12 16.8165 12 0 0 0 
835 279 1 12 16 16.5774 0 0 0 
836 279 2 12 16.8165 17.1547 0 0 0 
837 279 2 12 16.8165 16 0 0 0 
838 280 1 12 16 20.5774 0 0 0 
839 280 2 12 16.8165 21.1547 0 0 0 
840 280 2 12 16.8165 20 0 0 0 
841 281 1 12 16 24.5774 0 0 0 
842 281 2 12 16.8165 25.1547 0 0 0 
843 281 2 12 16.8165 24 0 0 0 
844 282 1 12 16 28.5774 0 0 0 
845 282 2 12 16.8165 29.1547 0 0 0 
846 282 2 12 16.8165 28 0 0 0 
847 283 1 12 16 32.5774 0 0 0 
848 283 2 12 16.8165 33.1547 0 0 0 
849 283 2 12 16.8165 32 0 0 0 
850 284 1 12 16 36.5774 0 0 0 
851 284 2 12 16.8165 37.1547 0 0 0 
852 284 2 12 16.8165 36 0 0 0 
853 285 1 12 16 40.5774 0 0 0 
854 285 2 12 16.8165 41.1547 0 0 0 
855 285 2 12 16.8165 40 0 0 0 
856 286 1 12 16 44.5774 0 0 0 
857 286 2 12 16.8165 45.1547 0 0 0 
858 286 2 12 16.8165 44 0 0 0 
859 287 1 12 20 4.57736 0 0 0 
860 287 2 12 20.8165 5.15467 0 0 0 
861 287 2 12 20.8165 4 0 0 0 
862 288 1 12 20 8.57736 0 0 0 
863 288 2 12 20.8165 9.15467 0 0 0 
864 288 2 12 20.8165 8 0 0 0 
865 289 1 12 20 12.5774 0 0 0 
866 289 2 12 20.8165 13.1547 0 0 0 
867 289 2 12 20.8165 12 0 0 0 
868 290 1 12 20 16.5774 0 0 0 
869 290 2 12 20.8165 17.1547 0 0 0 
870 290 2 12 20.8165 16 0 0 0 
871 291 1 12 20 20.5774 0 0 0 
872 291 2 12 20.8165 21.1547 0 0 0 
873 291 2 12 20.8165 20 0 0 0 
874 292 1 12 20 24.5774 0 0 0 
875 292 2 12 20.8165 25.1547 0 0 0 
876 292 2 12 20.8165 24 0 0 0 
877 293 1 12 20 28.5774 0 0 0 
878 293 2 12 20.8165 29.1547 0 0 0 
879 293 2 12 20.8165 28 0 0 0 
880 294 1 12 20 32.5774 0 0 0 
881 294 2 12 20.8165 33.1547 0 0 0 
882 294 2 12 20.8165 32 0 0 0 
883 295 1 12 20 36.5774 0 0 0 
884 295 2 12 20.8165 37.1547 0 0 0 
885 295 2 12 20.8165 36 0 0 0 
886 296 1 12 20 40.5774 0 0 0 
887 296 2 12 20.8165 41.1547 0 0 0 
888 296 2 12 20.8165 40 0 0 0 
889 297 1 12 20 44.5774 0 0 0 
890 297 2 12 20.8165 45.1547 0 0 0 
891 297 2 12 20.8165 44 0 0 0 
892 298 1 12 24 4.57736 0 0 0 
893 298 2 12 24.8165 5.15467 0 0 0 
894 298 2 12 24.8165 4 0 0 0 
895 299 1 12 24 8.57736 0 0 0 
896 299 2 12 24.8165 9.15467 0 0 0 
897 299 2 12 24.8165 8 0 0 0 
898 300 1 12 24 12.5774 0 0 0 
899 300 2 12 24.8165 13.1547 0 0 0 
900 300 2 12 24.8165 12 0 0 0 
901 301 1 12 24 16.5774 0 0 0 
902 301 2 12 24.8165 17.1547 0 0 0 
903 301 2 12 24.8165 16 0 0 0 
904 302 1 12 24 20.5774 0 0 0 
905 302 2 12 24.8165 21.1547 0 0 0 
906 302 2 12 24.8165 20 0 0 0 
907 303 1 12 24 24.5774 0 0 0 
908 303 2 12 24.8165 25.1547 0 0 0 
909 303 2 12 24.8165 24 0 0 0 
910 304 1 12 24 28.5774 0 0 0 
911 304 2 12 24.8165 29.1547 0 0 0 
912 304 2 12 24.8165 28 0 0 0 
913 305 1 12 24 32.5774 0 0 0 
914 305 2 12 24.8165 33.1547 0 0 0 
915 305 2 12 24.8165 32 0 0 0 
916 306 1 12 24 36.5774 0 0 0 
917 306 2 12 24.8165 37.1547 0 0 0 
918 306 2 12 24.8165 36 0 0 0 
919 307 1 12 24 40.5774 0 0 0 
920 307 2 12 24.8165 41.1547 0 0 0 
921 307 2 12 24.8165 40 0 0 0 
922 308 1 12 24 44.5774 0 0 0 
923 308 2 12 24.8165 45.1547 0 0 0 
924 308 2 12 24.8165 44 0 0 0 
925 309 1 12 28 4.57736 0 0 0 
926 309 2 12 28.8165 5.15467 0 0 0 
927 309 2 12 28.8165 4 0 0 0 
928 310 1 12 28 8.57736 0 0 0 
929 310 2 12 28.8165 9.15467 0 0 0 
930 310 2 12 28.8165 8 0 0 0 
931 311 1 12 28 12.5774 0 0 0 
932 311 2 12 28.8165 13.1547 0 0 0 
933 311 2 12 28.8165 12 0 0 0 
934 312 1 12 28 16.5774 0 0 0 
935 312 2 12 28.8165 17.1547 0 0 0 
936 312 2 12 28.8165 16 0 0 0 
937 313 1 12 28 20.5774 0 0 0 
938 313 2 12 28.8165 21.1547 0 0 0 
939 313 2 12 28.8165 20 0 0 0 
940 314 1 12 28 24.5774 0 0 0 
941 314 2 12 28.8165 25.1547 0 0 0 
942 314 2 12 28.8165 24 0 0 0 
943 315 1 12 28 28.5774 0 0 0 
944 315 2 12 28.8165 29.1547 0 0 0 
945 315 2 12 28.8165 28 0 0 0 
946 316 1 12 28 32.5774 0 0 0 
947 316 2 12 28.8165 33.1547 0 0 0 
948 316 2 12 28.8165 32 0 0 0 
949 317 1 12 28 36.5774 0 0 0 
950 317 2 12 28.8165 37.1547 0 0 0 
951 317 2 12 28.8165 36 0 0 0 
952 318 1 12 28 40.5774 0 0 0 
953 318 2 12 28.8165 41.1547 0 0 0 