LAMMPS (24 Apr 2013)
WARNING: OMP_NUM_THREADS environment is not set. (../comm.cpp:100)
  using 1 OpenMP thread(s) per MPI task
# LAMMPS 2005 MD Simulation Parameters - Generated by XenoView
# Structure file "C:\Users\laflij\Dropbox\Xenoview\34m.lmp"
# Source force field file pcff_d.frc

# Define units and force field
units		real
atom_style	full
boundary	p p p
kspace_style	pppm 0.0001

# Read system data
read_restart	confout-2.data
  orthogonal box = (-80.503 -16.1006 -16.1006) to (80.503 16.1006 16.1006)
  1 by 1 by 1 MPI processor grid
  12061 atoms
  8140 bonds
  4517 angles
  888 dihedrals
  397 impropers
  4 = max # of 1-2 neighbors
  6 = max # of 1-3 neighbors
  12 = max # of 1-4 neighbors
  16 = max # of special neighbors

# Write (hopefully folded) structure out
dump            icrd all custom 1 system-3.lammpstrj id mol type x y z ix iy iz
dump_modify     icrd sort id
run             1
WARNING: No fixes defined, atoms won't move (../verlet.cpp:54)
PPPM initialization ...
  G vector (1/distance) = 0.257678
  grid = 60 18 18
  stencil order = 5
  estimated absolute RMS force accuracy = 0.0342072
  estimated relative force accuracy = 0.000103014
  using double precision FFTs
  3d grid and FFT values/proc = 40625 19440
Memory usage per processor = 59.2215 Mbytes
Step Temp E_pair E_mol TotEng Press 
  205002    202.49622   -23281.087   -140.40816   -16142.045    4266.9263 
  205003    202.49622   -23281.087   -140.40816   -16142.045    4266.9263 
Loop time of 0.131738 on 1 procs (1 MPI x 1 OpenMP) for 1 steps with 12061 atoms

Pair  time (%) = 0.0968421 (73.5111)
Bond  time (%) = 0.00237989 (1.80654)
Kspce time (%) = 0.00972509 (7.38215)
Neigh time (%) = 0 (0)
Comm  time (%) = 0.000273228 (0.207402)
Outpt time (%) = 0.0224359 (17.0307)
Other time (%) = 8.17776e-05 (0.0620759)

FFT time (% of Kspce) = 0.00247146 (25.4133)
FFT Gflps 3d (1d only) = 1.55351 2.29416

Nlocal:    12061 ave 12061 max 12061 min
Histogram: 1 0 0 0 0 0 0 0 0 0
Nghost:    30184 ave 30184 max 30184 min
Histogram: 1 0 0 0 0 0 0 0 0 0
Neighs:    3.14745e+06 ave 3.14745e+06 max 3.14745e+06 min
Histogram: 1 0 0 0 0 0 0 0 0 0

Total # of neighbors = 3147451
Ave neighs/atom = 260.961
Ave special neighs/atom = 2.24608
Neighbor list builds = 0
Dangerous builds = 0

# Reset the timestep
undump         	icrd

# Timestep and Neighbour searching
timestep	1.5
neighbor	2.0 bin
neigh_modify	every 1 delay 4 check yes

# Groups
group 		end id 3 6 9
3 atoms in group end

# Computes
#compute rdf all rdf 100 1 1 1 2 2 2
#compute msd all msd com yes

# Fixes
fix		1 all shake 0.0001 20 0 b 3 a 4
  0 = # of size 2 clusters
  0 = # of size 3 clusters
  0 = # of size 4 clusters
  3920 = # of frozen angles
fix		2 all npt temp 300.0 300.0 100.0 iso 1.0 1.0 100.0
fix 		drag end drag 1000 0.0 0.0 1.0 2.0
#fix		 rdf all ave/time 1 500000 500000 c_rdf file rdf.xvg mode vector
#fix		 msd all ave/time 1 500000 500000 c_msd file msd.xvg mode vector

# Write out thermodynamic information
thermo_style    custom step temp press vol pe ke etotal
thermo	        250

# Write out trajectory
dump            cxtc all xtc 250 traj-3.xtc

# Write out velocity
#dump 		 1 all custom 1 vel_npt.txt vx vy vz

# Checkpoint files
restart         5000 state_cpt-*.data

# Final run command
run             100000
PPPM initialization ...
  G vector (1/distance) = 0.257678
  grid = 60 18 18
  stencil order = 5
  estimated absolute RMS force accuracy = 0.0342072
  estimated relative force accuracy = 0.000103014
  using double precision FFTs
  3d grid and FFT values/proc = 40625 19440
Memory usage per processor = 59.5512 Mbytes
Step Temp Press Volume PotEng KinEng TotEng 
  205003    300.01283   -56.121438    166950.11   -23421.503    7279.4495   -16142.053 
  205250    303.12139   -208.23889    167672.48   -23468.833     7354.875   -16113.958 
  205500    297.20832   -35.287511    166798.44   -23544.833    7211.4013   -16333.431 
  205750    301.18973   -66.743382    166440.13   -23577.702    7308.0056   -16269.696 
  206000       300.42    -129.8257    168394.49   -23347.914    7289.3289   -16058.585 
  206250    298.81018    101.26216    166781.59   -23479.187    7250.2687   -16228.918 
  206500    300.01263    64.653069    167537.93   -23426.958    7279.4445   -16147.514 
  206750     297.8346   -169.97374    168354.33   -23416.504    7226.5974   -16189.907 
  207000    299.67035    56.022767    168078.89   -23325.716    7271.1396   -16054.576 
  207250    301.66929   -110.95903    167906.63   -23481.333    7319.6415   -16161.692 
  207500    300.19947    40.317386    167653.23   -23436.206     7283.978   -16152.228 
  207750    298.74601    112.86431    167336.37   -23397.801    7248.7115    -16149.09 
  208000    301.62482   -50.774812    167840.02     -23375.2    7318.5624   -16056.637 
  208250    293.47929   -104.02392     167402.8   -23458.805    7120.9211   -16337.883 
  208500     300.9339   -19.443161    167769.17   -23385.943     7301.798   -16084.145 
  208750    299.39378    142.43401    166340.14   -23479.959     7264.429    -16215.53 
  209000    303.29878    27.578569    167555.92   -23438.271    7359.1791   -16079.092 
  209250    300.48127    216.13049    167442.74   -23488.544    7290.8157   -16197.728 
  209500    297.32476   -25.904164    168523.69   -23263.341    7214.2267   -16049.114 
  209750    301.45103    25.244886    167659.55   -23407.005    7314.3456   -16092.659 
  210000    303.67664    61.676662    167271.22   -23461.345    7368.3473   -16092.998 
  210250    302.95919   -17.465283    167578.78   -23366.144    7350.9393   -16015.205 
  210500    302.55165    50.828586    167923.64   -23348.232    7341.0508   -16007.181 
  210750    300.33221   -40.092075    168952.14   -23210.401    7287.1987   -15923.202 
  211000    298.04754    4.2760893    167691.15    -23405.06     7231.764   -16173.296 
  211250    298.40997    298.42219    165253.71    -23488.77     7240.558   -16248.212 
  211500    298.83042   -137.48981    166877.81   -23483.833    7250.7597   -16233.073 
  211750    299.70924    14.058892    165440.36   -23660.093    7272.0833    -16388.01 
  212000    300.56729   -145.00649     166357.4   -23572.542    7292.9028    -16279.64 
  212250    303.78213    44.229244    167402.33   -23354.757     7370.907    -15983.85 
  212500    297.93763    10.608987    167022.98   -23415.097    7229.0973       -16186 
  212750    300.41892    15.163992    166065.99   -23654.571    7289.3028   -16365.269 
  213000    298.99423   -132.21441    166678.71    -23538.78    7254.7344   -16284.045 
  213250    293.01147   -114.28347    166686.87   -23452.901    7109.5699   -16343.331 
  213500    296.72627    61.901219     166149.6       -23475    7199.7051   -16275.295 
  213750    297.20138    62.109945    166965.74   -23411.987     7211.233   -16200.754 
  214000    302.62016    67.695181    167347.06   -23436.602    7342.7131   -16093.889 
  214250    297.50765    47.228826    167256.13   -23554.127    7218.6643   -16335.463 
  214500     299.3253    31.767456    167173.76   -23466.996    7262.7673   -16204.228 
  214750    299.49104   -168.92015     168604.7   -23325.367    7266.7888   -16058.579 
  215000    298.55332    41.113124    168032.22   -23336.998    7244.0363   -16092.962 
  215250    300.28594    136.49148     167929.3   -23343.562    7286.0761   -16057.486 
  215500    297.26412   -207.69504     167583.4   -23488.001    7212.7554   -16275.246 
  215750    301.01307    123.93443    166206.45   -23402.445     7303.719   -16098.726 
  216000    302.81537    88.850374    165480.43   -23587.668    7347.4498   -16240.218 
  216250    298.30754    47.226802    167033.38    -23441.98    7238.0726   -16203.908 
  216500    301.79189   -89.157978    167571.58   -23385.959    7322.6163   -16063.343 
  216750    303.43159    13.084286    166601.57   -23562.642    7362.4015    -16200.24 
  217000    301.44543    9.8772592    168397.69   -23371.822    7314.2098   -16057.612 
  217250    298.92795   -109.41364    168452.62   -23373.204    7253.1261   -16120.078 
  217500    301.94535    132.29469    168298.02   -23337.225    7326.3396   -16010.886 
  217750    295.98856   -20.050757    168053.38   -23371.726    7181.8053   -16189.921 
  218000    302.44717   -98.667259    168126.69   -23404.994    7338.5159   -16066.478 
  218250    304.72562    100.51743    167956.62     -23461.1    7393.7995     -16067.3 
  218500    299.03195   -5.9552324    167477.08   -23506.386    7255.6495   -16250.737 
  218750    298.29542   -101.78617    167576.85   -23448.591    7237.7785   -16210.813 
  219000    298.08663    74.706449    167057.99   -23341.275    7232.7124   -16108.563 
  219250    301.84875    63.598364    165537.46   -23532.796    7323.9958     -16208.8 
  219500    305.79771    139.77513    167738.82   -23381.165    7419.8126   -15961.352 
  219750    303.07976    88.166062    167111.35   -23465.528    7353.8649   -16111.663 
  220000    304.93716   -66.078218    168416.97   -23369.946    7398.9324   -15971.013 
  220250    299.19258    50.410661    167328.37   -23505.096    7259.5472   -16245.549 
  220500    300.53559    43.796529    167888.43   -23443.185    7292.1336   -16151.052 
  220750     302.8795    120.62142    167685.46     -23398.3    7349.0057   -16049.294 
  221000    300.75003    6.0735322    167601.81   -23471.768    7297.3367   -16174.431 
  221250     294.9434    40.041486    166977.55    -23529.23    7156.4457   -16372.784 
  221500    303.22358    58.841943    166994.07   -23462.456    7357.3544   -16105.102 
  221750    302.02374   -135.25156    167399.52   -23518.848    7328.2418   -16190.607 
  222000    298.14835    117.25733     166714.1    -23486.56    7234.2101    -16252.35 
  222250    302.82843    -75.61385     168068.8   -23340.247    7347.7666   -15992.481 
  222500    294.44709   -89.517465    167686.41   -23414.021    7144.4034   -16269.618 
  222750     300.8698   -5.7765837    166875.51   -23451.154    7300.2429   -16150.911 
  223000    299.49058   -134.89252    168170.22    -23397.09    7266.7776   -16130.312 
  223250    302.62668    101.01433    168580.82    -23256.31    7342.8713   -15913.439 
  223500    302.36619   -44.455231    167127.31   -23453.407    7336.5508   -16116.856 
  223750     300.7305   -23.692588     167611.1   -23405.923    7296.8627   -16109.061 
  224000    298.50237   -71.032577       166941   -23414.868       7242.8   -16172.068 
  224250    295.67526    17.202776     167101.1   -23418.972    7174.2034   -16244.769 
  224500    296.19459   -75.366169    166906.98   -23487.227    7186.8045   -16300.423 
  224750    299.97893   -50.197962    167362.19   -23342.383    7278.6269   -16063.757 
  225000    301.30139    112.16871    167010.94   -23374.932    7310.7149   -16064.217 
  225250    300.62431   -153.60235    167078.33   -23512.901    7294.2864   -16218.614 
  225500    300.38595    8.4864014    167284.82   -23458.394    7288.5029   -16169.892 
  225750    297.69929    -79.75501    166584.96   -23497.606    7223.3142   -16274.292 
  226000    303.29996    23.226094    167007.91   -23418.077    7359.2077   -16058.869 
  226250    302.97261    134.49471    165822.39   -23715.423    7351.2649   -16364.158 
  226500     298.9302   -40.463271    166624.83   -23484.191    7253.1808   -16231.011 
  226750    294.86114     29.24514    166587.86   -23457.385    7154.4499   -16302.935 
  227000    304.56499   -135.36168    167575.22    -23416.32     7389.902   -16026.418 
  227250     299.6427    115.78827    165799.42   -23511.721    7270.4687   -16241.253 
  227500    300.15456   -150.20986     167957.6     -23348.7    7282.8883   -16065.812 
  227750    296.49776   -179.29808    168021.89   -23402.228    7194.1605   -16208.067 
  228000    297.41273   -99.787242    166457.48    -23624.97    7216.3612   -16408.608 
  228250    297.64452   -216.37739    168215.38   -23390.046    7221.9851   -16168.061 
  228500    306.19793   -165.63865       168595   -23290.043    7429.5235    -15860.52 
  228750    296.41624   -53.779893    167234.34   -23373.854    7192.1826   -16181.672 
  229000    299.58349    228.00807    166314.78   -23495.581     7269.032   -16226.549 
  229250    294.25904    174.51015    165438.54     -23568.1    7139.8406   -16428.259 
  229500     300.8315    148.46208    164922.21   -23657.255    7299.3134   -16357.942 
  229750    302.62161    166.41579    164731.48   -23596.724    7342.7483   -16253.976 
  230000    302.67673   -53.437051    167361.19   -23506.282    7344.0859   -16162.196 
  230250    302.70868   -51.201872    168391.91   -23320.036    7344.8611   -15975.175 
  230500    301.39963   -57.795641    167466.04   -23470.088    7313.0985    -16156.99 
  230750    297.55968    66.299409     167399.9     -23409.2    7219.9268   -16189.273 
  231000    304.08502    113.14081    167592.52   -23376.422    7378.2562   -15998.165 
  231250    298.85176    -4.337483    168209.41   -23396.881    7251.2775   -16145.604 
  231500    301.62132   -33.545431    169486.79   -23118.982    7318.4776   -15800.504 
  231750    297.16155   -14.631004    168480.96   -23336.355    7210.2666   -16126.088 
  232000    299.72345    70.617302    166374.83    -23604.07    7272.4281   -16331.642 
  232250    299.17416   -3.7086802    167630.39   -23444.318       7259.1   -16185.218 
  232500    300.40993    184.58717    166326.32   -23577.399    7289.0845   -16288.315 
  232750    300.25711    16.164261    167624.07   -23413.043    7285.3767   -16127.666 
  233000    297.81218   -1.7126775    166805.07   -23518.992    7226.0534   -16292.939 
  233250    303.15949    -99.52278    167439.77   -23455.655    7355.7994   -16099.856 
  233500    300.83377    79.874927    167149.35   -23488.749    7299.3687    -16189.38 
  233750    300.86867    40.819451    167795.45   -23343.433    7300.2153   -16043.218 
  234000    299.25313    104.14845    166504.73   -23565.589    7261.0163   -16304.573 
  234250    294.22489    -161.5191    167795.68   -23404.635    7139.0121   -16265.623 
  234500    300.83196   -123.82283    166703.32   -23564.619    7299.3248   -16265.294 
  234750     302.7668   -88.880715    167394.99   -23477.974    7346.2712   -16131.703 
  235000    301.32152    -78.99632    167296.21   -23486.432    7311.2031   -16175.229 
  235250    303.08803   -128.17582    167854.02   -23425.119    7354.0655   -16071.054 
  235500    300.98481   -6.7969299    166813.83   -23460.257    7303.0335   -16157.223 
  235750    295.00795    12.791567    166973.03   -23501.211    7158.0122   -16343.199 
  236000    298.46347    57.630767    167554.77   -23433.502    7241.8561   -16191.646 
  236250     301.3596   -9.4062496    167268.33   -23471.944    7312.1272   -16159.817 
  236500    305.22087   -8.7667013     166869.2   -23505.093    7405.8162   -16099.277 
  236750    300.35862   -40.321535     167147.4   -23494.879    7287.8397   -16207.039 
  237000     300.8479     27.14766    167173.04   -23557.519    7299.7113   -16257.807 
  237250    305.08843     124.6947    166989.59   -23446.378    7402.6027   -16043.776 
  237500    298.26561    50.672552    167260.73   -23474.197    7237.0553   -16237.142 
  237750    300.50763   -139.85378    165847.29   -23751.253    7291.4551   -16459.798 
  238000    302.57933    66.388193    166071.63   -23563.133    7341.7225    -16221.41 
  238250    297.87512   -99.716844    166528.62   -23674.028    7227.5806   -16446.447 
  238500    306.36492    48.312801    166236.26    -23562.51    7433.5753   -16128.935 
  238750    304.79042    74.689674    166109.95    -23576.79     7395.372   -16181.418 
  239000    302.56916    78.990638    166751.36   -23543.028    7341.4758   -16201.552 
  239250    299.28299   -57.924621    167768.29   -23436.568    7261.7409   -16174.827 
  239500    296.96591   -110.26113    168436.17   -23421.542    7205.5197   -16216.022 
  239750    298.66099    66.511407    168202.26   -23369.543    7246.6488   -16122.895 
  240000    299.83327    208.52803    166070.37   -23560.837    7275.0927   -16285.745 
  240250    298.17157    35.429507    166739.27   -23491.546    7234.7735   -16256.773 
  240500    303.09228    192.70843    167385.79    -23455.47    7354.1685   -16101.301 
  240750    294.51754   -281.36851    168937.49   -23430.377    7146.1128   -16284.264 
  241000    301.54634    37.926934    166111.62    -23677.57    7316.6583   -16360.912 
  241250    301.65961    56.321224    167058.84   -23451.673    7319.4066   -16132.267 
  241500    300.23304    124.35887    166149.64   -23464.653    7284.7925    -16179.86 
  241750    298.63673     37.24621    167930.93   -23532.009    7246.0601   -16285.949 
  242000    304.04313    207.54219    166672.44   -23569.406    7377.2397   -16192.166 
  242250    297.82928     149.4785    166863.32   -23521.551    7226.4683   -16295.083 
  242500    299.89411   -198.15716    167605.23   -23431.831    7276.5689   -16155.262 
  242750    299.16221    18.929102    167157.86   -23460.495    7258.8102   -16201.685 
  243000    299.80344    144.60195    166721.54   -23473.869    7274.3688     -16199.5 
  243250    300.98389   -111.79922    165939.57   -23757.848     7303.011   -16454.837 
  243500    303.06397   -202.88675    166862.46   -23535.105    7353.4817   -16181.624 
  243750    299.82207    95.812162    166672.18    -23556.84    7274.8208   -16282.019 
  244000    298.38962    33.795327    166120.32   -23573.007    7240.0641   -16332.943 
  244250    300.39354     -52.0466    165967.43    -23649.01     7288.687   -16360.323 
  244500    305.86048   -5.8106845    164706.72   -23732.188    7421.3357   -16310.852 
  244750    294.57697    79.875659    164310.22   -23722.891    7147.5547   -16575.336 
  245000    300.02557    256.25804    165720.18   -23557.914    7279.7586   -16278.156 
  245250    298.43548    -118.5493     165917.8   -23634.659    7241.1769   -16393.482 
  245500    302.36578    76.213784    167430.61   -23533.817    7336.5409   -16197.276 
  245750    305.71088   -25.377994    166657.94   -23544.355    7417.7057   -16126.649 
  246000    303.11794    161.07192    166212.39   -23606.031    7354.7911    -16251.24 
  246250    299.38081    113.58272    165925.32   -23606.614    7264.1142     -16342.5 
  246500    300.38682    165.39204    165398.74   -23599.074    7288.5239    -16310.55 
  246750    300.03079   -20.566115    167590.45   -23419.479    7279.8853   -16139.594 
  247000    295.63168   -101.28022    167354.47   -23582.394    7173.1461   -16409.248 
  247250     301.4045    147.99502    166060.07   -23561.574    7313.2167   -16248.357 
  247500    301.98977     73.38414    166463.52   -23566.983    7327.4175   -16239.565 
  247750    299.34467    104.41369    166458.06    -23621.77    7263.2373   -16358.532 
  248000    303.73051    146.08085     166022.3     -23567.3    7369.6546   -16197.645 
  248250    296.42711   -8.7095633    166662.65   -23542.699    7192.4462   -16350.253 
  248500    298.39306   -57.873616    166492.87   -23603.811    7240.1477   -16363.664 
  248750    303.25517   -91.428101    166882.22   -23597.789     7358.121   -16239.668 
  249000    302.82143   -99.771932    165711.38   -23709.994    7347.5968   -16362.397 
  249250    299.01565    41.540669    167227.71   -23472.587    7255.2542   -16217.333 
  249500    299.93527    115.89626    165983.33    -23668.47    7277.5676   -16390.902 
  249750    306.41558    -36.32474    166259.61   -23638.333    7434.8045   -16203.528 
  250000    300.38258   -120.85075    166728.99   -23604.817     7288.421   -16316.396 
  250250    302.59773    5.9791725    166190.04   -23622.865    7342.1689   -16280.696 
  250500    298.26702    74.453312     166215.4   -23657.668    7237.0894   -16420.578 
  250750    299.74254    46.225963    167235.74   -23404.726    7272.8913   -16131.834 
  251000    301.51177    130.93345    166238.38   -23609.564    7315.8193   -16293.745 
  251250    297.51238   -8.8264078    165317.03    -23712.32     7218.779   -16493.541 
  251500    299.98609    28.907739    165296.72   -23712.835    7278.8006   -16434.034 
  251750    302.62115   -34.854806    165078.81   -23790.919    7342.7371   -16448.182 
  252000    303.33942    -131.6282    165841.56   -23593.864    7360.1651   -16233.699 
  252250    296.86127   -50.036938    166210.55   -23658.593    7202.9807   -16455.612 
  252500    298.29188    132.02864    167724.86   -23539.401    7237.6927   -16301.708 
  252750    300.80896   -42.651238     167191.1   -23562.123    7298.7667   -16263.356 
  253000    303.96936   -162.67873       166914   -23579.197      7375.45   -16203.747 
  253250    299.64452    -157.8176    166891.81   -23682.834    7270.5127   -16412.321 
  253500    305.79119    110.29979    165397.25   -23746.892    7419.6545   -16327.238 
  253750    296.62106   -17.342484    165472.23   -23812.853    7197.1523   -16615.701 
  254000    300.68879    81.339584    166029.77   -23669.281    7295.8507    -16373.43 
  254250    303.12423   -57.112446    166649.32    -23661.19    7354.9439   -16306.246 
  254500    300.25969   -1.1419331    166225.15    -23702.58    7285.4391   -16417.141 
  254750    301.64836    133.84773    166164.18   -23592.437    7319.1335   -16273.304 
  255000    298.62209    182.42458     165524.7   -23689.707    7245.7048   -16444.003 
  255250    298.03839   -98.825587    166481.17   -23610.934    7231.5422   -16379.392 
  255500    299.85425    112.27992    166148.49   -23634.079    7275.6018   -16358.477 
  255750    296.86237   -232.28557    167485.67   -23610.059    7203.0073   -16407.052 
  256000    299.68142   -124.51154    166296.01    -23659.32    7271.4081   -16387.912 
  256250    297.08086   -104.08511    166655.08   -23685.415    7208.3087   -16477.106 
  256500    300.45035    112.57308    164103.39   -23802.307    7290.0652   -16512.242 
  256750    300.17718   -53.783689    166255.18   -23634.871    7283.4371   -16351.434 
  257000    299.35458    193.05705    163961.24   -23844.557    7263.4779    -16581.08 
  257250    300.80722    194.72753    165623.01    -23693.86    7298.7244   -16395.136 
  257500    298.27252   -8.8633202    165910.42   -23584.155     7237.223   -16346.932 
  257750    296.53031    144.66593    165894.71   -23609.364    7194.9502   -16414.414 
  258000    298.41259   -136.55511    167201.86   -23555.958    7240.6215   -16315.336 
  258250    297.38226    28.961133    165609.72   -23717.773    7215.6217   -16502.151 
  258500    301.00367   -24.801347    166794.76   -23662.483    7303.4909   -16358.992 
  258750      302.043   -102.72781    165897.32   -23683.057    7328.7091   -16354.348 
  259000    295.49039   -30.397465     165600.7   -23688.025    7169.7179   -16518.307 
  259250    300.63764   -142.21661    166895.91   -23675.376    7294.6096   -16380.766 
  259500    301.40015    -117.4898    165561.36   -23768.319    7313.1111   -16455.208 
  259750     300.4931    8.8449134    165688.53   -23675.812    7291.1026   -16384.709 
  260000    302.86625    132.63869    164895.44   -23849.347    7348.6843   -16500.662 
  260250    299.64424     2.365359    166691.23    -23654.11     7270.506   -16383.604 
  260500    305.65468   -94.581837    167132.58   -23592.559    7416.3421   -16176.217 
  260750     297.1807   -18.068545    166349.81   -23717.763    7210.7313   -16507.032 
  261000    298.01277   -127.06849    166822.04   -23558.436    7230.9204   -16327.515 
  261250    299.22709     236.9876    164177.19   -23891.707    7260.3845   -16631.323 
  261500    306.42268   -106.32912    165546.46   -23775.682    7434.9767   -16340.706 
  261750    302.65238   -61.250669     166109.1   -23693.045    7343.4949    -16349.55 
  262000    302.67141   -16.519835    165546.74   -23686.603    7343.9566   -16342.646 
  262250    297.44271    48.151793     164941.9   -23839.595    7217.0886   -16622.506 
  262500    300.86661    91.427553    164956.39   -23736.556    7300.1654   -16436.391 
  262750    300.71859   -6.7454632    165531.34   -23795.181    7296.5739   -16498.607 
  263000    299.87294   -146.02814    165439.62   -23905.007    7276.0552   -16628.952 
  263250    300.02161    118.84412    164813.38   -23732.978    7279.6626   -16453.315 
  263500     300.1513   -183.63832    167962.41   -23454.923    7282.8092   -16172.114 
  263750    300.11932   -96.054669    167180.15   -23683.669    7282.0333   -16401.636 
  264000    302.33307   -22.179857    166594.72   -23575.788    7335.7473    -16240.04 
  264250     298.0698   -98.320707    166715.32   -23788.651    7232.3041   -16556.347 
  264500    303.24225   -260.98652    166972.05   -23723.527    7357.8074   -16365.719 
  264750    305.09713   -10.614784    165888.97   -23658.239    7402.8139   -16255.425 
  265000     295.2897   -181.56433    167135.25   -23634.331    7164.8485   -16469.483 
  265250    298.73344   -133.04093    166151.63   -23603.536    7248.4065    -16355.13 
  265500    300.75903    -79.61214    165761.63   -23710.209    7297.5552   -16412.654 
  265750    296.95189    44.124915    164500.74   -23860.013    7205.1793   -16654.834 
  266000    300.31581     149.8454    166372.11   -23706.138     7286.801   -16419.337 
  266250    299.80761   -103.70652    167013.83   -23574.455    7274.4701   -16299.985 
  266500    302.42744   -38.052296    167034.42   -23586.975     7338.037   -16248.938 
  266750    300.56943   -16.732227    165800.58   -23755.077    7292.9546   -16462.122 
  267000    301.31856   -174.60892    166013.95   -23879.583    7311.1314   -16568.452 
  267250    298.88169   -128.03973    167071.96   -23643.702    7252.0037   -16391.699 
  267500    297.13609   -34.373412    166550.33   -23629.295    7209.6488   -16419.646 
  267750    297.59411    311.56406    164713.24    -23803.31    7220.7621   -16582.548 
  268000    302.70303   -174.38351    164844.98   -23883.375     7344.724   -16538.651 
  268250    299.72942    113.35071    163795.13   -23785.673    7272.5729     -16513.1 
  268500     303.3637    88.508276    164452.23   -23798.694    7360.7542    -16437.94 
  268750    301.93924    45.413978     165885.7   -23690.663    7326.1915   -16364.472 
  269000    297.86839   -272.86181    167611.57   -23556.641    7227.4173   -16329.224 
  269250    299.35946    51.739555    165775.94   -23773.863    7263.5962   -16510.267 
  269500    298.53418   -102.76783    165259.81    -23844.31    7243.5717   -16600.738 
  269750    295.33621   -3.9467989    165091.29   -23825.856    7165.9768   -16659.879 
  270000    303.64125    30.697559    165372.12     -23759.7    7367.4887   -16392.211 
  270250    301.86492   -45.341034    165060.08    -23830.47    7324.3881   -16506.082 
  270500     302.9985   -185.20797    166095.11   -23777.718    7351.8931   -16425.825 
  270750    303.22585   -224.32189    165539.73   -23843.773    7357.4096   -16486.363 
  271000    295.61516   -192.81745    166001.62   -23810.562    7172.7453   -16637.816 
  271250    300.34253    51.512945     166535.9   -23641.827    7287.4492   -16354.377 
  271500    297.27454    26.997018    165123.53   -23823.365    7213.0082   -16610.357 
  271750    297.98699   -152.65852    166869.58   -23666.226    7230.2949   -16435.931 
  272000    301.21343   -64.202326    166332.69    -23678.37    7308.5805    -16369.79 
  272250    296.74441   -90.921237    165729.64   -23755.055    7200.1452    -16554.91 
  272500    301.02451   -57.182221    164657.71   -23910.944    7303.9967   -16606.947 
  272750    300.36409    101.62339    164882.65   -23817.786    7287.9723   -16529.814 
  273000    294.73688    104.60622    163892.77   -23924.105    7151.4348    -16772.67 
  273250     305.2625    119.49487    163007.49   -24038.654    7406.8263   -16631.828 
  273500    302.40027   -12.869678    165466.54   -23789.076    7337.3778   -16451.698 
  273750     294.6521   -88.844795    165060.63   -23773.085    7149.3779   -16623.707 
  274000     304.0563    147.07499    164912.57   -23733.506    7377.5593   -16355.947 
  274250    304.62833    46.645305    164633.88   -23943.666    7391.4389   -16552.227 
  274500    303.96534    42.881605    165816.85   -23696.674    7375.3522   -16321.322 
  274750    297.97506    105.55084    164911.03   -23811.115    7230.0053   -16581.109 
  275000    301.71225    183.26013     164995.6   -23786.506    7320.6837   -16465.822 
  275250    300.60376   -226.65381    164999.82   -23934.563    7293.7876   -16640.775 
  275500    296.79063   -68.993541    165461.04   -23885.978    7201.2665   -16684.712 
  275750    299.73532  -0.65772738    166351.23   -23693.583    7272.7159   -16420.868 
  276000    299.71775    126.64105    164919.41   -23824.927    7272.2896   -16552.637 
  276250    299.73726   -160.36083    166522.23   -23715.083    7272.7632    -16442.32 
  276500    295.47365   -69.790578    165560.25     -23860.1    7169.3116   -16690.789 
  276750    300.84338    135.12376    165440.95   -23861.847    7299.6019   -16562.245 
  277000    296.98524     88.96814    165886.45   -23768.296    7205.9885   -16562.308 
  277250    299.18845   -66.881567    164966.57   -23936.501    7259.4468   -16677.054 
  277500     297.2943     62.81243    165554.81   -23718.472    7213.4877   -16504.984 
  277750    296.83589    37.654273    165270.24   -23746.779    7202.3649   -16544.414 
  278000    301.56104   -87.205457    165321.86   -23890.326    7317.0149   -16573.311 
  278250    306.07748   -66.952858    166363.06   -23759.711    7426.6008    -16333.11 
  278500     297.3112    -27.23466    165083.13   -23798.364    7213.8976   -16584.466 
  278750    300.98916   -132.53138     165909.7   -23766.395     7303.139   -16463.256 
  279000     302.2208    12.347532    165454.03   -23755.336    7333.0232   -16422.312 
  279250    298.49437     -61.8109    164489.19   -23810.653    7242.6059   -16568.047 
  279500    303.13664   -131.12571     166004.4   -23731.499     7355.245   -16376.254 
  279750    299.42455    166.51556     164087.5   -23974.093    7265.1756   -16708.917 
  280000    300.10651    142.11685    164238.79   -23900.862    7281.7226   -16619.139 
  280250    300.70889   -93.458252     164484.1   -23948.335    7296.3386   -16651.997 
  280500    296.65259    67.937041    163544.77   -23962.981    7197.9172   -16765.064 
  280750    306.12907    27.609505    162703.65   -24098.431    7427.8526   -16670.579 
  281000    300.56539   -141.09554    165151.08   -23850.386    7292.8568   -16557.529 
  281250    296.02121   -125.88102    164514.34   -23998.822    7182.5976   -16816.224 
  281500    295.47664    64.235811    164104.22   -23998.611    7169.3843   -16829.226 
  281750    298.61706   0.50537611    165682.83    -23838.13    7245.5829   -16592.547 
  282000    296.06281   -65.880103    166020.64   -23838.803     7183.607   -16655.195 
  282250    294.11456     55.53208    165114.38   -23888.524    7136.3351   -16752.189 
  282500    299.82716     209.0039    165354.23   -23800.623    7274.9443   -16525.679 
  282750    298.01908   -242.21768    165561.22   -23939.216    7231.0736   -16708.143 
  283000    300.85374    116.32328    166489.94   -23664.966    7299.8531   -16365.113 
  283250    296.94189    -37.96118       165400   -23899.272    7204.9368   -16694.335 
  283500     299.7385   -102.11724    166076.26   -23778.985     7272.793   -16506.192 
  283750    299.04083    86.427623    164192.11   -23911.648    7255.8651   -16655.783 
  284000    303.78852    43.491647    164365.89   -23870.333    7371.0619   -16499.271 
  284250    301.41954   -20.696518     164589.2   -24018.901    7313.5814   -16705.319 
  284500    301.49696   -14.015426    166067.78   -23850.349    7315.4601   -16534.889 
  284750    295.62791    -162.6964    164598.16   -24075.244    7173.0547    -16902.19 
  285000    296.69182   -101.84453    164212.86   -23954.741    7198.8692   -16755.871 
  285250    302.08711   -58.234216    165219.25   -23890.095    7329.7794   -16560.315 
  285500    297.54483    181.55776    164750.06   -23930.078    7219.5664   -16710.511 
  285750     301.8756    230.70185     165048.7   -23823.271    7324.6473   -16498.624 
  286000     299.8834   -135.93853    165875.43   -23888.157    7276.3091   -16611.847 
  286250    299.17267    16.761132    164690.31   -23938.699    7259.0641   -16679.635 
  286500    302.79431     66.36506    166048.51   -23846.939    7346.9387       -16500 
  286750    303.03541    27.882471    164815.95   -23930.172    7352.7886   -16577.383 
  287000     301.9665   -272.78369    164772.19   -24032.809     7326.853   -16705.956 
  287250    295.26499    29.813805    164206.15   -23933.422    7164.2489   -16769.173 
  287500    302.51044    23.958042    164289.63   -23924.304    7340.0511   -16584.253 
  287750    301.47742   -60.505335    163500.11   -24097.414    7314.9859   -16782.428 
  288000    300.63516    44.806299    163820.24   -24026.775    7294.5494   -16732.226 
  288250    296.15458   -190.61788    164320.85   -24017.008    7185.8336   -16831.174 
  288500    297.37388   -221.88189    164247.56   -24028.508    7215.4184    -16813.09 
  288750    299.43543   -52.055862    163839.09    -23983.76    7265.4395   -16718.321 
  289000     297.5156   -127.63509    164533.07   -24013.831    7218.8571   -16794.974 
  289250    301.07011     171.4819    164182.86   -23942.636    7305.1032   -16637.533 
  289500    295.84996    105.96491    163661.61   -23979.105    7178.4425   -16800.662 
  289750    298.12023    118.00479    163390.03   -24044.298    7233.5277    -16810.77 
  290000    302.77462   -29.792133    164838.15   -23955.231    7346.4609    -16608.77 
  290250    298.97458   -28.899791    163878.63   -23980.188    7254.2575    -16725.93 
  290500    300.07867    8.7496528    163313.29   -24059.526     7281.047   -16778.479 
  290750    296.31111   -1.9572848    163580.22   -23978.054    7189.6317   -16788.422 
  291000    296.68791    190.05482    163314.01   -24012.461    7198.7744   -16813.687 
  291250    299.05306   -62.791858    163131.08   -24103.633    7256.1617   -16847.471 
  291500    301.40493    -127.5005    163983.57   -24032.383    7313.2271   -16719.156 
  291750    298.36421    151.30197     162631.6   -24124.088    7239.4478    -16884.64 
  292000    297.91526    55.277172    164392.12   -23952.448    7228.5545   -16723.894 
  292250     301.8485    17.948015    164928.41   -23938.783    7323.9897   -16614.793 
  292500    295.98469   -149.48999    164783.19   -24014.112    7181.7116   -16832.401 
  292750    298.84843    1.5250921    164841.81   -23908.529    7251.1966   -16657.333 
  293000    299.30445    55.357964    163638.94   -24140.963    7262.2615   -16878.702 
  293250     301.2268   -169.55443    163471.09   -24069.406     7308.905   -16760.501 
  293500    301.67088   -19.170106    163790.47   -24009.002    7319.6801   -16689.322 
  293750    301.50774    74.400371    163412.38   -24084.753    7315.7216   -16769.032 
  294000     301.7778   -41.136421     163947.8   -24080.175    7322.2744   -16757.901 
  294250    301.42659    86.112267     163779.4   -24057.142    7313.7525    -16743.39 
  294500    297.77902    138.56786    161555.24   -24204.823    7225.2488   -16979.574 
  294750    304.08593   -79.461459    163651.86   -24099.795    7378.2783   -16721.517 
  295000    296.24585     29.88275    163588.24    -24132.08    7188.0483   -16944.031 
  295250     296.3146    137.37274    163261.79   -24019.606    7189.7164    -16829.89 
  295500    301.43792    20.246815    164528.03   -24027.257    7314.0277   -16713.229 
  295750    298.73402   -74.789647    163450.73   -24195.802    7248.4206   -16947.382 
  296000    298.72672    95.111263    164240.27   -24017.893    7248.2435   -16769.649 
  296250    301.64329   -146.05595    165312.27   -23963.883    7319.0105   -16644.873 
  296500    297.30309    28.823842    163801.18   -24040.901    7213.7009     -16827.2 
  296750     300.5323    20.581368    163259.34   -24184.199    7292.0538   -16892.146 
  297000    302.25279    48.857284    163580.11   -24061.051    7333.7994   -16727.252 
  297250    301.66809    125.65799    162257.63   -24235.848    7319.6123   -16916.235 
  297500    300.37885   -51.928951    163668.29   -24020.132    7288.3305   -16731.802 
  297750    298.94348    54.345214    163148.73    -24252.52    7253.5031   -16999.016 
  298000    298.01084    119.33891     163701.5   -24027.546    7230.8736   -16796.672 
  298250    302.43508   -77.596963    164139.79   -24102.219    7338.2224   -16763.996 
  298500     300.3134    39.775046     165050.1   -23960.347    7286.7425   -16673.604 
  298750    295.46344   -42.190438    163180.38   -24126.242     7169.064   -16957.178 
  299000    301.97732   -188.31889    163436.73   -24087.952    7327.1154   -16760.836 
  299250    301.39547   -216.40088    163372.58   -24217.758    7312.9976    -16904.76 
  299500    301.00797   -38.594439    163059.88   -24132.418    7303.5953   -16828.822 
  299750    301.89181    -133.8049    163583.61   -24042.931    7325.0405    -16717.89 
  300000    304.02881   -91.619233     162562.1   -24251.122    7376.8924   -16874.229 
  300250    301.74768   -197.73364    163627.64   -24122.485    7321.5436   -16800.942 
  300500    295.41612     45.93322    163517.21   -24147.595    7167.9158   -16979.679 
  300750     300.6609    64.850361    163480.95   -24166.438     7295.174   -16871.264 
  301000    298.61349   -15.692154    164280.13   -24004.169    7245.4962   -16758.673 
  301250    304.86765   -103.47081    163075.63   -24236.957    7397.2458   -16839.711 
  301500    301.77287    9.4113194    162802.85   -24178.933    7322.1548   -16856.778 
  301750    299.50484    8.3156531    163672.71   -24115.769    7267.1238   -16848.646 
  302000    296.78167    21.957343    162331.36   -24274.084    7201.0492   -17073.035 
  302250    297.17608     60.97507    163261.25   -24066.998    7210.6192   -16856.379 
  302500    304.46837    112.65372    163780.13   -24058.797    7387.5576   -16671.239 
  302750     299.2898     30.95057    163264.27   -24223.465    7261.9059   -16961.559 
  303000    298.62035    50.701857    161834.87   -24331.758    7245.6625   -17086.095 
  303250    302.71555    113.86523    163225.72     -24100.6    7345.0276   -16755.572 
  303500      294.803    14.796255     163398.5   -24018.965    7153.0393   -16865.926 
  303750    297.51033   -34.157743    162063.74   -24273.111    7218.7293   -17054.382 
  304000    301.06207   -77.825857     163411.9   -24101.349    7304.9079   -16796.441 
  304250    296.86902   -67.386568    162418.57   -24208.136    7203.1687   -17004.967 
  304500    298.55317    23.784127    163171.52   -24040.218    7244.0325   -16796.185 
  304750    299.16648    47.275953    162358.21    -24205.12    7258.9138   -16946.206 
  305000    295.43565   -101.60258    162638.43    -24216.78    7168.3896    -17048.39 
  305003    295.95028   -83.157366    162823.42   -24226.505    7180.8765   -17045.629 
Loop time of 10405.6 on 1 procs (1 MPI x 1 OpenMP) for 100000 steps with 12061 atoms

Pair  time (%) = 7323.74 (70.3825)
Bond  time (%) = 119.651 (1.14987)
Kspce time (%) = 1003.91 (9.6478)
Neigh time (%) = 1015.5 (9.75913)
Comm  time (%) = 35.72 (0.343276)
Outpt time (%) = 0.514838 (0.00494769)
Other time (%) = 906.583 (8.71244)

FFT time (% of Kspce) = 246.786 (24.5824)
FFT Gflps 3d (1d only) = 1.55578 2.29668

Nlocal:    12061 ave 12061 max 12061 min
Histogram: 1 0 0 0 0 0 0 0 0 0
Nghost:    30598 ave 30598 max 30598 min
Histogram: 1 0 0 0 0 0 0 0 0 0
Neighs:    3.23072e+06 ave 3.23072e+06 max 3.23072e+06 min
Histogram: 1 0 0 0 0 0 0 0 0 0

Total # of neighbors = 3230724
Ave neighs/atom = 267.865
Ave special neighs/atom = 2.24608
Neighbor list builds = 8862
Dangerous builds = 0
write_restart   confout-3.data
PPPM initialization ...
  G vector (1/distance) = 0.258414
  grid = 60 18 18
  stencil order = 5
  estimated absolute RMS force accuracy = 0.0333467
  estimated relative force accuracy = 0.000100423
  using double precision FFTs
  3d grid and FFT values/proc = 40625 19440
