LAMMPS (24 Apr 2013)
WARNING: OMP_NUM_THREADS environment is not set. (../comm.cpp:100)
  using 1 OpenMP thread(s) per MPI task
# LAMMPS 2005 MD Simulation Parameters - Generated by XenoView
# Structure file "C:\Users\laflij\Dropbox\Xenoview\34m.lmp"
# Source force field file pcff_d.frc

# Define units and force field
units		real
atom_style	full
boundary	p p p
kspace_style	pppm 0.0001

# Read system data
read_restart	confout-2.data
  orthogonal box = (-56.314 -15.0171 -15.0171) to (56.314 15.0171 15.0171)
  1 by 1 by 1 MPI processor grid
  10337 atoms
  6992 bonds
  3950 angles
  900 dihedrals
  404 impropers
  4 = max # of 1-2 neighbors
  6 = max # of 1-3 neighbors
  12 = max # of 1-4 neighbors
  16 = max # of special neighbors

# Write (hopefully folded) structure out
dump            icrd all custom 5 system-3.lammpstrj id mol type x y z ix iy iz
dump_modify     icrd sort id
run             1
WARNING: No fixes defined, atoms won't move (../verlet.cpp:54)
PPPM initialization ...
  G vector (1/distance) = 0.262151
  grid = 45 18 18
  stencil order = 5
  estimated absolute RMS force accuracy = 0.0320199
  estimated relative force accuracy = 9.64271e-05
  using double precision FFTs
  3d grid and FFT values/proc = 31250 14580
Memory usage per processor = 65.3443 Mbytes
Step Temp E_pair E_mol TotEng Press 
  205002    201.06693   -29853.232   -113.94808   -23772.378    17650.362 
  205003    201.06693   -29853.232   -113.94808   -23772.378    17650.362 
Loop time of 0.125449 on 1 procs (1 MPI x 1 OpenMP) for 1 steps with 10337 atoms

Pair  time (%) = 0.114742 (91.4651)
Bond  time (%) = 0.00223708 (1.78326)
Kspce time (%) = 0.00812292 (6.47508)
Neigh time (%) = 0 (0)
Comm  time (%) = 0.000228167 (0.18188)
Outpt time (%) = 6.60419e-05 (0.0526445)
Other time (%) = 5.26905e-05 (0.0420016)

FFT time (% of Kspce) = 0.00197838 (24.3556)
FFT Gflps 3d (1d only) = 1.41312 2.13023

Nlocal:    10337 ave 10337 max 10337 min
Histogram: 1 0 0 0 0 0 0 0 0 0
Nghost:    30295 ave 30295 max 30295 min
Histogram: 1 0 0 0 0 0 0 0 0 0
Neighs:    3.80281e+06 ave 3.80281e+06 max 3.80281e+06 min
Histogram: 1 0 0 0 0 0 0 0 0 0

Total # of neighbors = 3802810
Ave neighs/atom = 367.883
Ave special neighs/atom = 2.29119
Neighbor list builds = 0
Dangerous builds = 0

# Reset the timestep
undump         	icrd

# Timestep and Neighbour searching
timestep	2.0
neighbor	2.0 bin
neigh_modify	every 1 delay 4 check yes


# Computes
#compute rdf all rdf 100 1 1 1 2 2 2
#compute msd all msd com yes

# Fixes
fix		1 all shake 0.0001 20 0 b 3 a 4
  0 = # of size 2 clusters
  0 = # of size 3 clusters
  0 = # of size 4 clusters
  3344 = # of frozen angles
fix		2 all npt temp 300.0 300.0 100.0 iso 1.0 1.0 100.0
#fix		 rdf all ave/time 1 500000 500000 c_rdf file rdf.xvg mode vector
#fix		 msd all ave/time 1 500000 500000 c_msd file msd.xvg mode vector

# Write out thermodynamic information
thermo_style    custom step temp press vol pe ke etotal
thermo	        250

# Write out trajectory
dump            cxtc all xtc 250 traj-3.xtc

# Write out velocity
#dump 		 1 all custom 1 vel_npt.txt vx vy vz

# Checkpoint files
restart         5000 state_cpt-*.data

# Final run command
run             400000
PPPM initialization ...
  G vector (1/distance) = 0.262151
  grid = 45 18 18
  stencil order = 5
  estimated absolute RMS force accuracy = 0.0320199
  estimated relative force accuracy = 9.64271e-05
  using double precision FFTs
  3d grid and FFT values/proc = 31250 14580
Memory usage per processor = 68.1509 Mbytes
Step Temp Press Volume PotEng KinEng TotEng 
  205003    297.22937    159.68977    101595.98   -29967.194    6194.8021   -23772.392 
  205250     299.2105    65.404919    102165.61   -29857.513    6236.0925    -23621.42 
  205500    303.54156   -169.79544     101759.6   -29857.753    6326.3597   -23531.393 
  205750    304.04553     140.3263    101400.82   -29941.115    6336.8633   -23604.252 
  206000    297.29584    32.433963    101506.62   -30058.955    6196.1876   -23862.767 
  206250    301.73501    24.549051    102663.39    -29739.46    6288.7079   -23450.752 
  206500    299.78563   -297.82245    102422.04   -29777.464    6248.0793   -23529.385 
  206750     299.2164   -41.474975    102376.14   -29716.499    6236.2155   -23480.284 
  207000    298.41755     175.1935     102974.9   -29645.162    6219.5661   -23425.596 
  207250    302.24214    -83.64996    102808.99   -29593.546    6299.2775   -23294.268 
  207500    302.39439    345.12425    102250.36   -29753.883    6302.4505   -23451.432 
  207750    303.19774   -1.9216863    101709.27   -29854.425    6319.1939   -23535.231 
  208000    298.97121    100.53406    102873.97   -29675.695    6231.1053    -23444.59 
  208250    296.68856   -229.21528    102852.17   -29726.588    6183.5306   -23543.057 
  208500    297.28369    253.09226    102739.55   -29619.044    6195.9343    -23423.11 
  208750    300.15321   -44.999154    103145.44   -29653.829    6255.7404   -23398.088 
  209000    298.06235    266.95034    102484.29   -29752.914    6212.1629   -23540.752 
  209250    300.13396   -673.34854    102886.74   -29726.709     6255.339    -23471.37 
  209500    300.31248    242.38886    102444.75   -29878.542    6259.0599   -23619.482 
  209750     296.0155    156.64927    102978.92   -29765.773     6169.503    -23596.27 
  210000     305.4011    88.269904    103073.05   -29536.593    6365.1159   -23171.477 
  210250    296.73478    25.566124    102936.64   -29793.526     6184.494   -23609.032 
  210500    297.26309    245.14007    102324.66   -29772.868    6195.5049   -23577.363 
  210750    302.02641   -8.3828215    103058.97   -29677.995    6294.7812   -23383.214 
  211000    301.52584    346.76287     102699.7   -29766.656    6284.3485   -23482.307 
  211250    304.39353   -16.760164    102476.26   -29650.185    6344.1164   -23306.069 
  211500    299.57669    201.80454    101545.83   -29885.795    6243.7247    -23642.07 
  211750     302.0493   -41.482964    102009.69    -29808.31    6295.2582   -23513.052 
  212000    304.10734    248.65374    102792.99   -29795.543    6338.1516   -23457.392 
  212250    296.80864   -333.90625    103513.63    -29655.18    6186.0334   -23469.147 
  212500    300.75567    -64.54071       102410   -29756.823    6268.2967   -23488.526 
  212750    304.93493   -159.16364    102713.03   -29795.106    6355.4002   -23439.706 
  213000    295.20067   -292.08819    102319.44   -29926.735    6152.5204   -23774.214 
  213250    299.03127   -57.050727    102920.54    -29756.36    6232.3572   -23524.003 
  213500     300.6244   -45.197525    102610.99   -29760.236    6265.5607   -23494.675 
  213750    301.51573   -132.08453    103152.41   -29699.965    6284.1377   -23415.828 
  214000    298.17117     35.95741    102577.93   -29773.679    6214.4309   -23559.248 
  214250     302.1493     127.5509    102928.45   -29728.716    6297.3424   -23431.373 
  214500    297.61363   -108.70056     103036.4   -29782.054    6202.8108   -23579.243 
  214750    302.48188    126.21228     102762.1   -29628.387    6304.2741   -23324.113 
  215000    301.95079    396.87974    101396.06   -29730.983    6293.2052   -23437.778 
  215250     302.4159    20.429465     102001.4   -29886.655    6302.8989   -23583.756 
  215500    298.32075   -109.05855    103107.96   -29728.975    6217.5485   -23511.426 
  215750    298.19263   -294.90148    102430.07   -29891.202    6214.8782   -23676.324 
  216000    298.59616    115.15657    102574.33   -29615.956    6223.2885   -23392.667 
  216250    301.22174    6.2455761    102345.81   -29801.971    6278.0105   -23523.961 
  216500    299.40048   -255.19798    103390.71   -29767.413    6240.0522   -23527.361 
  216750    304.84381    139.38613    102522.73   -29839.796     6353.501   -23486.295 
  217000    299.91321   -81.726818    102557.95   -29863.161    6250.7382   -23612.423 
  217250    300.24177    -283.3952    102955.46    -29784.33     6257.586   -23526.744 
  217500    304.53892    45.790161    102250.41   -29873.076    6347.1466    -23525.93 
  217750     305.3321    75.215018    102419.92   -29752.087    6363.6779    -23388.41 
  218000    300.03954    92.671265    102093.27   -29817.409    6253.3712   -23564.038 
  218250    305.12754    296.64886    103027.75   -29783.342    6359.4145   -23423.928 
  218500    301.86121    130.06286    102417.59   -29889.835    6291.3381   -23598.497 
  218750    299.65291    174.80304    102250.73   -29742.834    6245.3131   -23497.521 
  219000    298.34024    157.90823    102711.15   -29775.891    6217.9546   -23557.936 
  219250    300.92205     2.697258    101980.91   -29754.212    6271.7644   -23482.447 
  219500    301.33429   -164.19707    102928.25   -29784.046    6280.3562    -23503.69 
  219750    301.65814   -118.91872    102939.92   -29722.582    6287.1058   -23435.477 
  220000    294.73484    74.849015    102266.38   -29766.348    6142.8117   -23623.537 
  220250    302.01647   -371.17284    102597.74   -29884.515     6294.574   -23589.941 
  220500    297.89689     64.83998    102563.59   -29672.752    6208.7146   -23464.038 
  220750    300.59583    167.60123    101742.47   -30009.513    6264.9654   -23744.548 
  221000    297.69093   -257.80517    102459.84   -29746.736    6204.4218   -23542.314 
  221250    299.30358    4.0986396    102042.82   -29761.234    6238.0324   -23523.202 
  221500    300.73112   -86.552011     102704.3   -29892.346    6267.7851   -23624.561 
  221750    299.22581   -422.97311    103621.75   -29787.101    6236.4116    -23550.69 
  222000    298.03186    115.59244     102698.4   -29698.924    6211.5275   -23487.397 
  222250    298.25424   -276.42562    103173.77   -29764.143    6216.1623   -23547.981 
  222500    301.29979   -1.2915301    103264.87   -29899.944    6279.6372   -23620.306 
  222750    298.94806   -129.01133     103246.4   -29791.975    6230.6229   -23561.352 
  223000    297.62204    -39.33955    102619.64   -29789.398    6202.9861   -23586.412 
  223250    299.52348   -2.3110509    102618.74    -29785.16    6242.6156   -23542.544 
  223500    307.58882   -139.51297    103592.03   -29764.141     6410.712   -23353.429 
  223750    301.03398     94.52207    102716.25   -29822.295    6274.0972   -23548.198 
  224000    299.77201   -261.39067    103382.09    -29812.67    6247.7955   -23564.875 
  224250    299.81028   -175.98702    103396.18   -29576.351     6248.593   -23327.758 
  224500    300.77288    102.01292    102388.06    -29703.56    6268.6555   -23434.904 
  224750    296.50593   -37.258953    102941.12   -29688.913    6179.7244   -23509.189 
  225000    301.83597    268.75156    102150.85   -29728.128     6290.812   -23437.316 
  225250    298.40061    227.91059    101840.23   -29893.231     6219.213   -23674.018 
  225500    300.05871    22.081783    102510.93    -29712.71    6253.7709   -23458.939 
  225750    300.65618   -39.411048    102220.79   -29665.654    6266.2231   -23399.431 
  226000    299.45563   -123.73815    102228.23   -29881.506    6241.2016   -23640.304 
  226250    303.20137   -82.338512    102364.67   -29784.141    6319.2696   -23464.872 
  226500    300.21385    430.27441    102269.82   -29725.975    6257.0042   -23468.971 
  226750    298.28694   -183.24886    102487.77   -29669.224    6216.8438    -23452.38 
  227000    300.87002   -25.594945    102846.62   -29744.178      6270.68   -23473.498 
  227250    296.31481   -173.59673    103560.16   -29658.034    6175.7412   -23482.293 
  227500    303.47287    200.20014    102752.13   -29700.893    6324.9282   -23375.965 
  227750    299.51922    262.90834    102451.28   -29814.695    6242.5268   -23572.168 
  228000    297.18644   -76.667162    102972.32   -29726.526    6193.9074   -23532.619 
  228250    305.77115    59.455486    102789.94   -29707.202    6372.8284   -23334.373 
  228500    298.32917   -4.2541027    103768.29   -29633.659     6217.724   -23415.935 
  228750    299.71799   -189.17523       102755   -29613.113    6246.6696   -23366.444 
  229000    304.17994    -66.11024    102782.18   -29726.486    6339.6646   -23386.821 
  229250     296.0277   -211.07053    102543.11   -29778.351    6169.7572   -23608.594 
  229500    302.66119   -202.32616    103487.65   -29498.512    6308.0113   -23190.501 
  229750    298.89944    113.58257    103253.65   -29584.238    6229.6095   -23354.629 
  230000    304.19073    131.92853    102693.35   -29788.875    6339.8895   -23448.985 
  230250    297.21616      332.081    102513.01   -29834.681    6194.5269   -23640.154 
  230500    296.67871     80.40416    103034.62   -29769.914    6183.3255   -23586.588 
  230750    298.99407    159.02924    102222.57   -29743.114    6231.5818   -23511.533 
  231000     299.1884    142.90933    102148.81   -29812.759    6235.6319   -23577.127 
  231250    296.08974    105.45557    102198.76   -29810.483    6171.0501   -23639.433 
  231500    306.59932    309.41751    101785.53   -29634.073    6390.0889   -23243.984 
  231750    297.41696    312.83867    102474.94   -29788.956    6198.7119   -23590.244 
  232000    297.41907    235.19557    102397.32   -29830.623    6198.7559   -23631.867 
  232250    301.91176     371.5141     101839.6   -29799.811    6292.3918    -23507.42 
  232500    298.40609    100.53151    102197.35   -29744.664    6219.3271   -23525.336 
  232750    298.80439    244.46682    101848.18   -29744.183    6227.6285   -23516.554 
  233000    301.77111   -345.56885     102948.1   -29785.482    6289.4603   -23496.021 
  233250    301.51222    122.13207    102450.96    -29736.95    6284.0645   -23452.886 
  233500    298.32853   -25.212925    103175.14    -29624.16    6217.7107    -23406.45 
  233750    295.15477    350.60526    101641.25   -29839.155    6151.5636   -23687.591 
  234000    300.49005   -66.951159    102401.51   -29831.702    6262.7607   -23568.941 
  234250    298.67166    1.3114396    102549.17   -29687.399    6224.8621   -23462.536 
  234500    299.07334    81.766644    102915.98   -29794.598    6233.2339   -23561.364 
  234750    297.88251    64.445956     102082.8   -29813.416    6208.4148   -23605.001 
  235000    293.76975    7.1323404    102249.62   -29870.398    6122.6974   -23747.701 
  235250    297.75052    160.29979     102566.2   -29760.411    6205.6639   -23554.748 
  235500    298.55281    38.507484    102673.84   -29842.896    6222.3851   -23620.511 
  235750    299.59805   -157.38084    102886.98   -29782.137    6244.1699   -23537.968 
  236000    299.54557   -272.69457     102566.3   -29781.001    6243.0761   -23537.924 
  236250    299.09764   -164.45938    103133.86   -29821.671    6233.7404   -23587.931 
  236500    300.59528   -189.55924    102577.61   -29831.493     6264.954   -23566.539 
  236750    299.03812    401.32773     101713.1   -29981.573    6232.4998   -23749.073 
  237000    300.30105    272.86668    102465.95   -29708.325    6258.8217   -23449.503 
  237250    296.26771    93.584431    102497.25   -29796.412    6174.7594   -23621.652 
  237500    301.56841   -230.47329    102898.41   -29666.285    6285.2357   -23381.049 
  237750    306.86506   -277.25695    103116.74   -29721.837    6395.6276    -23326.21 
  238000    303.81041     39.33189     102809.9   -29724.497    6331.9631   -23392.534 
  238250    302.59172    171.09199    103328.08   -29742.548    6306.5633   -23435.985 
  238500    301.08667    41.683903    102863.91   -29715.477    6275.1954   -23440.282 
  238750    301.27214    104.57375    101882.85    -29779.29    6279.0608   -23500.229 
  239000    298.37856   -193.27056    102741.09   -29756.059    6218.7533   -23537.306 
  239250    305.39762   -310.46454    103071.52   -29636.741    6365.0434   -23271.698 
  239500    299.86112    86.121805     102649.4    -29719.21    6249.6526   -23469.558 
  239750    294.33499    64.597463    102926.67   -29722.935    6134.4779   -23588.457 
  240000    304.75612    300.50973    102274.56   -29611.395    6351.6734   -23259.722 
  240250    304.37474    163.24367    102249.05   -29714.769    6343.7247   -23371.044 
  240500    300.24516   -57.173086    102487.84   -29773.783    6257.6568   -23516.126 
  240750    296.13549    397.32919    102714.98   -29697.871    6172.0037   -23525.868 
  241000    301.68305   -56.611221    101517.27   -29943.535     6287.625    -23655.91 
  241250    300.50882   -291.65452    103105.68   -29814.139    6263.1519   -23550.987 
  241500    297.91663    -10.86059    102092.32   -30007.907    6209.1259   -23798.781 
  241750     304.0795   -252.09246     102932.5   -29746.478    6337.5713   -23408.906 
  242000    301.31033   -174.83281    102769.53    -29818.16    6279.8567   -23538.303 
  242250    302.62169   -128.10598     103725.1   -29713.966     6307.188   -23406.778 
  242500    304.04414    73.462597     103102.7   -29677.803    6336.8345   -23340.969 
  242750    298.76144    198.53433     102069.6   -29774.159    6226.7332   -23547.426 
  243000    300.81275   -130.85484    102059.94    -29759.77    6269.4864   -23490.284 
  243250    297.78168   -223.46748    102577.27   -29766.932    6206.3133   -23560.619 
  243500    298.64561   -263.01136    103008.73   -29520.866    6224.3191   -23296.547 
  243750    298.79056    349.10735    102525.45   -29673.277    6227.3402   -23445.937 
  244000    298.30218   -194.77833    103460.04   -29703.207    6217.1615   -23486.045 
  244250    300.28728   -102.93995    102872.95   -29812.929    6258.5346   -23554.395 
  244500    293.72014    384.76891     102437.2   -29735.087    6121.6634   -23613.423 
  244750     291.1348    61.593408    102774.15   -29645.871    6067.7803   -23578.091 
  245000    303.63877    189.28046    102121.68   -29623.274    6328.3857   -23294.888 
  245250    298.30241   -128.54253    103420.77   -29678.518    6217.1662   -23461.352 
  245500    295.01589     -123.772    103015.66   -29704.436    6148.6693   -23555.767 
  245750    294.99847    -34.12605    102638.16   -29727.263    6148.3062   -23578.957 
  246000    298.20417   -116.22276    103133.91   -29744.831    6215.1189   -23529.712 
  246250    300.13939    118.62149    102538.64   -29827.541    6255.4523   -23572.089 
  246500     294.4093    112.32949    102120.14   -29661.658    6136.0268   -23525.631 
  246750    305.15814   -21.188495     103047.2   -29660.186    6360.0522   -23300.134 
  247000    302.92637   -426.78984    103017.69   -29814.626     6313.538   -23501.088 
  247250    298.60229    47.341748    103103.69   -29669.871    6223.4163   -23446.455 
  247500    298.93019    14.970367    102094.47   -29814.938    6230.2503   -23584.688 
  247750    302.14856    380.94097    101554.97   -29953.227    6297.3271     -23655.9 
  248000    301.43565    71.723508    102881.93   -29484.321    6282.4687   -23201.852 
  248250    302.59774   -220.62004    102915.01   -29742.683    6306.6889   -23435.994 
  248500    294.78769    -136.1162    102256.47   -29742.662     6143.913   -23598.749 
  248750    302.13453   -152.11839    102843.47   -29696.453    6297.0347   -23399.418 
  249000    301.03983    48.031149    102720.06   -29647.813    6274.2192   -23373.594 
  249250     297.9363   -186.16513    102992.21    -29711.19    6209.5358   -23501.654 
  249500    298.82693    -88.99733    102054.34    -29887.97    6228.0982   -23659.871 
  249750    303.73085   -397.51453    103224.63   -29803.517    6330.3049   -23473.213 
  250000     299.7821    251.82554    102652.75   -29722.337    6248.0057   -23474.332 
  250250    294.22901    -53.27255    102158.95    -29735.16    6132.2692   -23602.891 
  250500    292.36632    127.14336     102475.8   -29802.605    6093.4474   -23709.158 
  250750    300.35363    -94.02776    102763.93   -29744.044    6259.9175   -23484.126 
  251000    296.71391    161.16533    102905.75   -29600.827     6184.059   -23416.768 
  251250    296.27344   -139.97104    103002.05   -29776.828     6174.879   -23601.949 
  251500    299.38874   -510.19319    103577.53   -29685.059    6239.8074   -23445.252 
  251750    300.87685     265.7062    101784.74   -29890.099    6270.8223   -23619.277 
  252000      298.987    230.34157    102387.91   -29694.614    6231.4345    -23463.18 
  252250    299.32628    12.148601    103035.44   -29656.183    6238.5056   -23417.677 
  252500    302.50082   -98.488689    102066.01   -29785.651    6304.6687   -23480.982 
  252750    294.40108   -114.96421    102595.56   -29766.018    6135.8555   -23630.162 
  253000    301.62377   -336.69674    103448.31   -29709.537    6286.3896   -23423.147 
  253250    301.27546    -116.1867    102714.25   -29816.006    6279.1301   -23536.876 
  253500    303.30509    51.391954    102439.59   -29861.897    6321.4314   -23540.466 
  253750    301.85742    50.598075    102354.96   -29729.776    6291.2592   -23438.517 
  254000    296.88839   -286.55823    102997.68   -29616.718    6187.6956   -23429.022 
  254250     300.1894    213.68598    102407.59   -29710.969    6256.4946   -23454.475 
  254500     303.1213   -143.66549    102660.55   -29912.611    6317.6007    -23595.01 
  254750    300.97206   -42.000667    102355.68    -29811.75    6272.8066   -23538.944 
  255000    303.75122   -407.17503    103066.28   -29715.225    6330.7294   -23384.496 
  255250    296.89322    -41.20526     102568.1   -29808.599    6187.7962   -23620.803 
  255500    306.40123    89.591156    102765.62    -29626.05    6385.9605   -23240.089 
  255750    300.35995   -33.190912    102514.76   -29617.965    6260.0491   -23357.916 
  256000    303.41074   -136.49216    102616.16   -29737.682    6323.6332   -23414.048 
  256250    299.22263    262.32876    103182.57   -29759.326    6236.3453    -23522.98 
  256500    300.21269   -80.273004    103022.45   -29813.593    6256.9801   -23556.613 
  256750     296.0848    42.352287    103066.94   -29603.082    6170.9473   -23432.135 
  257000     298.3894    200.41644    102174.52    -29876.79    6218.9793    -23657.81 
  257250    298.54173    79.132876    102828.27   -29770.566    6222.1541   -23548.412 
  257500    301.56791    168.65999    102656.94    -29699.38    6285.2252   -23414.155 
  257750    296.22208   -149.52248    103000.75   -29792.954    6173.8083   -23619.146 
  258000    300.41983   -144.26744    103240.15   -29751.765    6261.2971   -23490.468 
  258250    303.51487   -19.910555    103282.77   -29626.494    6325.8034    -23300.69 
  258500    301.30322    322.76497    102935.65   -29677.563    6279.7087   -23397.854 
  258750    298.97635   -211.43673    103244.06   -29663.966    6231.2125   -23432.754 
  259000    300.16052    51.301403     103144.1   -29679.376    6255.8926   -23423.484 
  259250    297.73435    105.06364       101776   -29940.465     6205.327   -23735.138 
  259500    299.15446    158.23698     103051.9   -29660.288    6234.9246   -23425.363 
  259750    299.67752    149.41224    103013.91   -29587.779     6245.826   -23341.953 
  260000    303.21642   -403.37716    103080.91   -29830.577    6319.5832   -23510.993 
  260250    304.84127    52.905998    102682.52   -29882.339    6353.4481   -23528.891 
  260500    297.70345     104.2721    101625.59   -29964.298    6204.6829   -23759.615 
  260750    298.10544    409.21255    102168.23   -29850.981     6213.061    -23637.92 
  261000    303.44126   -32.475119    102628.88   -29744.732    6324.2693   -23420.463 
  261250    300.57463   -23.547179    102934.63   -29760.408    6264.5234   -23495.884 
  261500    295.97465     110.3042    102102.86   -29822.422    6168.6516   -23653.771 
  261750    299.92348   -42.392206    102920.51   -29742.895    6250.9523   -23491.943 
  262000    298.61405     230.9335    102008.85   -29717.779    6223.6615   -23494.118 
  262250    305.16624    394.49553    102971.16   -29552.575    6360.2209   -23192.354 
  262500    298.80474   -56.129156    102490.61   -29802.792    6227.6359   -23575.156 
  262750    301.31669    348.23883    102254.78   -29770.975    6279.9893   -23490.986 
  263000    303.01301     102.0848    102196.06   -29810.857    6315.3437   -23495.513 
  263250    300.56951    199.59463     102572.8   -29829.806    6264.4168   -23565.389 
  263500    299.39203   -16.530068    102837.06   -29733.816    6239.8761    -23493.94 
  263750    299.87071    58.295232    102296.68   -29725.661    6249.8525   -23475.808 
  264000     303.4959   -32.821794    102576.92   -29605.193    6325.4081   -23279.784 
  264250    302.99859    237.59091    102254.79   -29880.794    6315.0433    -23565.75 
  264500    298.12772    182.91082    102748.59    -29667.18    6213.5255   -23453.655 
  264750    302.30031    261.44432    102788.26   -29682.059    6300.4898   -23381.569 
  265000    301.23608    135.06019    102544.34   -29750.144    6278.3093   -23471.835 
  265250    299.93891    -305.0508    102848.07   -29898.475    6251.2739   -23647.201 
  265500    295.70266   -151.56744    102994.57   -29636.098    6162.9827   -23473.116 
  265750     299.0036   -431.21689    102815.75   -29839.173    6231.7803   -23607.393 
  266000    300.14626    58.704649    102348.38   -29986.098    6255.5954   -23730.503 
  266250    303.52294   -44.928214    103306.11   -29796.632    6325.9716   -23470.661 
  266500    301.06466    177.44689    101572.52   -29720.046    6274.7366   -23445.309 
  266750      299.063   -18.114856    102950.88   -29679.084    6233.0184   -23446.066 
  267000    300.94188    67.891181    102847.78   -29718.465    6272.1776   -23446.287 
  267250    303.98497   -44.250704    102321.23   -29762.679    6335.6012   -23427.077 
  267500    294.78403   -362.60296    102977.74   -29789.689    6143.8369   -23645.852 
  267750    296.71594    14.360006    103086.69   -29780.319    6184.1013   -23596.218 
  268000    301.74456    285.24228     102044.2   -29805.227     6288.907    -23516.32 
  268250    300.27138   -63.539294    103095.72   -29643.532    6258.2032   -23385.329 
  268500    299.69535   -150.03598     102845.7   -29817.133    6246.1976   -23570.935 
  268750    298.63645    99.984016    102020.54   -29890.546    6224.1282   -23666.418 
  269000    300.09296   -143.98699    103047.28   -29754.773    6254.4845   -23500.288 
  269250    302.50503    58.863342    102871.11   -29685.344    6304.7566   -23380.587 
  269500    298.05976    203.54141    101835.06   -29939.409    6212.1089     -23727.3 
  269750     298.2611   -185.27687    102815.11   -29887.487    6216.3053   -23671.182 
  270000    300.68202    180.55733    102730.66   -29871.998    6266.7617   -23605.236 
  270250    301.43524   -279.49606    103468.21   -29650.315    6282.4602   -23367.855 
  270500     305.0459    160.08745    102057.01    -29686.13     6357.713   -23328.417 
  270750    297.97529    112.85552    102301.94   -29784.794    6210.3484   -23574.445 
  271000    300.49795   -16.160454    102195.69   -29735.758    6262.9254   -23472.833 
  271250     303.4379   -29.731352     102481.5   -29848.581    6324.1992   -23524.382 
  271500    300.70067    202.51496    102766.32   -29670.003    6267.1504   -23402.853 
  271750    302.13665    379.41797    102476.24   -29833.712    6297.0789   -23536.633 
  272000    300.08166    223.62061    102979.36   -29785.466    6254.2492   -23531.216 
  272250     296.4601     14.18033    103107.03   -29766.276    6178.7692   -23587.507 
  272500    299.36584    48.922515    102612.85   -29543.699    6239.3301   -23304.369 
  272750    298.52296   -287.09166    102879.51   -29743.271     6221.763   -23521.508 
  273000    296.92417   -290.01236    102819.37   -29733.126    6188.4413   -23544.685 
  273250    298.22159    222.26386    101873.22   -29842.393    6215.4819   -23626.911 
  273500     296.8458    8.3571381    102171.35   -29949.905    6186.8078   -23763.097 
  273750    299.36329   -257.01524    102136.77   -29695.136     6239.277   -23455.859 
  274000    293.80483     -128.322    102770.56   -29819.607    6123.4284   -23696.178 
  274250    302.54882    145.01442     102355.8   -29778.058    6305.6692   -23472.389 
  274500    297.29646    117.14117     102541.3   -29803.868    6196.2004   -23607.668 
  274750    303.75036   -207.41729     103229.5   -29628.687    6330.7116   -23297.976 
  275000    298.25057    -224.8124    103039.64   -29638.782    6216.0858   -23422.696 
  275250    301.29662    101.58171    102584.92   -29905.637    6279.5712   -23626.066 
  275500    295.29306    242.52467    102504.12    -29597.73     6154.446   -23443.284 
  275750    304.72329   -269.34017    102765.72   -29778.639    6350.9891    -23427.65 
  276000    300.42484   -66.942165    102984.82   -29715.614    6261.4015   -23454.212 
  276250    297.18903    197.66623    102226.97   -29807.995    6193.9615   -23614.033 
  276500    297.13855   -170.85179    102812.37   -29861.362    6192.9093   -23668.453 
  276750    298.16033    217.76635    102915.52   -29599.115    6214.2051    -23384.91 
  277000    300.33747    271.34755    102713.47   -29705.742    6259.5807   -23446.161 
  277250    300.44943     111.5751    102834.55    -29707.82    6261.9141   -23445.906 
  277500    302.83136   -13.499324    102323.85   -29731.927    6311.5579   -23420.369 
  277750    299.57286   -218.48142    103123.18   -29904.588    6243.6448   -23660.943 
  278000    300.76787    80.935213    102348.36   -29759.676    6268.5509   -23491.125 
  278250    307.31805   -14.730193    102371.18   -29748.775    6405.0688   -23343.706 
  278500    302.42059   -48.989265    102747.76   -29848.166    6302.9966    -23545.17 
  278750    303.33083   -221.22606    102387.73   -29767.119    6321.9678   -23445.151 
  279000    305.62384    -252.5895    102783.39   -29826.936    6369.7583   -23457.178 
  279250     301.7192    91.873878    101629.89     -29936.7    6288.3784   -23648.322 
  279500     301.6234   0.99083882    102157.05   -29804.577    6286.3817   -23518.196 
  279750    299.22476   -342.63125     102918.5   -29679.756    6236.3897   -23443.366 
  280000    298.65314    224.20356    102691.31   -29834.462    6224.4761   -23609.986 
  280250    301.40347    144.47407    102644.77   -29792.937    6281.7979   -23511.139 
  280500    298.31969    278.38621    102104.55   -29755.843    6217.5265   -23538.317 
  280750    298.81867    169.66207    102408.54   -29733.087    6227.9261   -23505.161 
  281000    297.17997   -53.519399    102513.18   -29705.453    6193.7726    -23511.68 
  281250    295.50809    337.47502       101540    -29774.22    6158.9276   -23615.293 
  281500    300.02202    156.92572     102243.6   -29703.959     6253.006   -23450.953 
  281750    297.66594   -343.71856    101921.44   -29810.948    6203.9011   -23607.047 
  282000    292.28264    105.05265    101517.97    -29853.41    6091.7033   -23761.707 
  282250    299.91937    202.62545    102041.35   -29841.759    6250.8666   -23590.893 
  282500    300.98776    90.929909    102589.45   -29749.575    6273.1338   -23476.441 
  282750    299.55338    171.81272    103036.47   -29643.374    6243.2388   -23400.135 
  283000    300.89628    67.442886    102648.16   -29841.184    6271.2272   -23569.957 
  283250    302.91262   -140.29844    102772.69   -29666.001    6313.2514   -23352.749 
  283500    303.19624   -166.74729    102666.74   -29899.389    6319.1627   -23580.227 
  283750    301.68798    114.46603    102546.17   -29887.344    6287.7278   -23599.616 
  284000    305.45486    38.626152    102693.84   -29624.133    6366.2363   -23257.897 
  284250    296.56894    -297.2051    102904.22   -29714.879    6181.0375   -23533.842 
  284500    294.48115    325.92629    103044.15   -29674.095    6137.5242   -23536.571 
  284750    293.78532    -190.4758     103497.3    -29772.99    6123.0219   -23649.969 
  285000    298.67381   -115.65929    102910.04   -29742.327    6224.9069    -23517.42 
  285250    301.06764    248.71052    101803.03   -29936.275    6274.7987   -23661.476 
  285500    297.67008   -202.01981    101924.34   -29834.575    6203.9873   -23630.587 
  285750    302.36086   -80.112504    102843.73   -29720.334    6301.7519   -23418.583 
  286000    304.41044    61.245751     103102.9    -29636.56    6344.4688   -23292.091 
  286250    301.62633    36.493195    102994.15   -29694.592    6286.4429    -23408.15 
  286500    301.21113    91.447897    102071.41   -29905.647    6277.7893   -23627.857 
  286750    301.79894   -215.26754    103064.79   -29762.873    6290.0403   -23472.833 
  287000    304.84637    89.248777     103379.1   -29616.223    6353.5544   -23262.668 
  287250    301.78845   -26.410596     103393.6   -29654.219    6289.8217   -23364.397 
  287500    295.97278   -143.12386       103044   -29723.184    6168.6126   -23554.571 
  287750    303.04688    127.72357    101804.72   -29859.207    6316.0496   -23543.158 
  288000    303.85313   -42.037998    102670.06   -29805.209    6332.8535   -23472.356 
  288250     302.8911    469.37107    103049.36   -29600.557    6312.8029   -23287.754 
  288500     306.7858    710.57201    101985.36   -29734.963    6393.9756   -23340.988 
  288750    301.43643   -125.79288    102434.44    -29678.98     6282.485   -23396.495 
  289000    299.64594   -114.07321    103092.82   -29715.077    6245.1679   -23469.909 
  289250     304.2522    -207.3875    102709.24   -29851.018    6341.1707   -23509.848 
  289500    301.80856    212.22647     102313.4   -29710.362     6290.241   -23420.121 
  289750    298.51682   -244.82836    103300.89   -29697.829     6221.635   -23476.194 
  290000    297.22295     37.43047    103095.33   -29685.941    6194.6685   -23491.273 
  290250    297.42516    128.27502    103477.38   -29523.637    6198.8828   -23324.754 
  290500    299.76978    103.72199    102879.15   -29700.928    6247.7489   -23453.179 
  290750    299.38714   -28.220774    102298.22   -29924.048     6239.774   -23684.274 
  291000    299.00424   -419.71912     103073.9   -29668.028    6231.7938   -23436.234 
  291250     305.9173    244.46257    101940.16   -29825.218    6375.8744   -23449.343 
  291500    301.36024   -74.328417    103002.83   -29734.815     6280.897   -23453.918 
  291750    299.60888   -474.39519    102863.25   -29730.644    6244.3956   -23486.248 
  292000    298.70971   -100.78025    102821.73   -29844.698    6225.6553   -23619.042 
  292250    296.86128    90.931038    102728.77   -29757.711    6187.1304    -23570.58 
  292500    299.56023    267.10491    101823.45   -29697.849    6243.3816   -23454.467 
  292750     294.0598    325.56192    101286.44   -30006.893    6128.7426   -23878.151 
  293000    299.05176   -38.563383     102096.7   -29760.841    6232.7842   -23528.057 
  293250    296.44094    337.10908    101871.02   -29705.525    6178.3699   -23527.155 
  293500    301.38231    122.33915    101784.01    -29945.19    6281.3571   -23663.833 
  293750    296.60905   -3.9093949    103312.49   -29704.749    6181.8737   -23522.876 
  294000     301.9176    42.490218    102545.54   -29730.552    6292.5134   -23438.038 
  294250     301.7218    226.51997    101214.71   -29999.492    6288.4326   -23711.059 
  294500    300.78502    103.97991    102945.98   -29712.572    6268.9085   -23443.664 
  294750    297.47722    408.67198       101876   -29761.864    6199.9678   -23561.896 
  295000    295.86705    272.47566    102353.02   -29810.134    6166.4089   -23643.725 
  295250    298.05074    14.242152    102517.64   -29647.146    6211.9209   -23435.225 
  295500     305.1081    185.87718    102229.96   -29757.451    6359.0092   -23398.441 
  295750    303.30883   -162.07668    102877.93   -29753.889    6321.5093   -23432.379 
  296000    300.96319    247.02667     101939.9   -29897.856    6272.6218   -23625.234 
  296250    299.80247    69.881674    103054.17   -29806.583    6248.4303   -23558.153 
  296500    305.14668    49.276923    103124.25   -29656.487    6359.8134   -23296.674 
  296750    302.09957   -322.25468    103228.89   -29655.138     6296.306   -23358.832 
  297000    298.71117     175.5844     102316.8   -29726.288    6225.6856   -23500.603 
  297250     298.9064   -46.452806    102799.37   -29667.771    6229.7546   -23438.016 
  297500    296.71639    188.57047    101267.57   -29823.452    6184.1107   -23639.342 
  297750    298.30874    -128.2055    102319.08   -29817.757    6217.2981   -23600.459 
  298000    298.43644    -41.82273    103413.67   -29695.724    6219.9598   -23475.765 
  298250     298.2975    91.932909    102498.98   -29775.252     6217.064   -23558.188 
  298500    295.44324   -8.5856065    101849.54    -29766.62     6157.576   -23609.044 
  298750    295.42517    29.769733    101963.22   -29829.215    6157.1995   -23672.016 
  299000    295.15633   -87.092086    102232.47   -29774.576    6151.5962    -23622.98 
  299250    295.44298   -94.201126    102719.52   -29734.149    6157.5705   -23576.579 
  299500    298.75651       154.65    102693.19   -29700.038    6226.6306   -23473.408 
  299750    297.50202  -0.23583564    102537.82   -29745.458    6200.4847   -23544.973 
  300000    295.87823    122.33493    102048.04   -29915.934    6166.6419   -23749.292 
  300250    303.40804   -147.50709     103016.7     -29802.2    6323.5769   -23478.623 
  300500    298.37424   -21.310695    103557.75   -29642.074    6218.6634    -23423.41 
  300750     294.0783    137.56416    102218.81   -29829.432    6129.1281   -23700.304 
  301000    297.84326   -10.881697    102038.89   -29851.612    6207.5967   -23644.015 
  301250    303.26624    92.220945    101974.45   -29711.774    6320.6215   -23391.152 
  301500    298.48021   -36.911149    102788.56   -29875.761    6220.8721   -23654.889 
  301750    297.03902   -25.052197    102434.07   -29735.909     6190.835   -23545.074 
  302000    296.01199    166.61381    102850.51   -29740.548    6169.4298   -23571.118 
  302250    298.96423    -227.8329       103403   -29597.181    6230.9598   -23366.221 
  302500    302.98282    223.90017    102028.44   -29838.979    6314.7145   -23524.265 
  302750    298.00629   -216.78445    102493.74   -29619.095    6210.9945   -23408.101 
  303000    298.86864   -25.191823     101757.9   -29853.541    6228.9676   -23624.574 
  303250    300.67895   -199.80308    102570.13    -29683.69    6266.6977   -23416.993 
  303500    296.29286      216.364    101836.35   -29891.503    6175.2837   -23716.219 
  303750    303.51644   -88.124478    102609.07    -29666.39    6325.8362   -23340.554 
  304000    300.65596   -498.83182    102190.54   -29970.439    6266.2185   -23704.221 
  304250    299.26909   -485.80407    103210.27   -29686.783    6237.3137   -23449.469 
  304500    300.56318   -122.45113    103700.31   -29683.485    6264.2849   -23419.201 
  304750    304.00326   -167.13171    103468.81   -29620.016    6335.9823   -23284.034 
  305000    299.49783    37.291435    103428.91   -29645.704     6242.081   -23403.623 
  305250    297.88219     149.9023       102897   -29732.194    6208.4081   -23523.786 
  305500    296.56628    413.45094    102331.71   -29704.979    6180.9821   -23523.997 
  305750    301.69147   -274.30935    103102.21   -29786.584    6287.8005   -23498.783 
  306000    305.21272    126.00827    102865.26   -29664.343    6361.1898   -23303.153 
  306250    292.76968    265.25833    102595.87   -29817.119    6101.8541   -23715.265 
  306500    301.40309    -261.0288    102893.85   -29607.877    6281.7902   -23326.087 
  306750    298.30813    10.862053    102708.69   -29783.207    6217.2855   -23565.922 
  307000    298.11296   -167.87885    102931.87   -29790.513    6213.2179   -23577.296 
  307250    304.05549    279.00981    102408.08   -29817.189    6337.0709   -23480.118 
  307500    298.57257   -138.80251    103309.29    -29621.89    6222.7969   -23399.093 
  307750    298.93571   -64.687684     102864.1   -29822.874    6230.3654   -23592.509 
  308000    298.84312   -41.478964    102899.61    -29748.78    6228.4357   -23520.344 
  308250    303.15711    36.762557    102583.94   -29700.039    6318.3471   -23381.692 
  308500    300.42921    7.3724802    103057.34   -29819.185    6261.4927   -23557.693 
  308750    301.04817    109.46257    103146.17   -29727.988     6274.393   -23453.595 
  309000    299.33876    167.29791    102721.13   -29707.729    6238.7658   -23468.963 
  309250    299.16383    54.812571    102276.52   -29711.802    6235.1198   -23476.682 
  309500    300.60097   -366.70803    102863.64   -29763.109    6265.0724   -23498.036 
  309750    295.99665      189.419    102458.33   -29842.135      6169.11   -23673.026 
  310000     303.8391    61.975871    102412.91   -29837.311    6332.5609    -23504.75 
  310250    300.72647   -321.06958    103072.43    -29901.59    6267.6881   -23633.902 
  310500    303.57766   -127.44826     102395.5   -29751.652     6327.112    -23424.54 
  310750    300.86688    64.636692    102594.48   -29777.114    6270.6146   -23506.499 
  311000    302.01481   -257.89664       102861   -29864.632    6294.5394   -23570.092 
  311250    296.96785   0.88982913    102216.39   -29686.129    6189.3517   -23496.777 
  311500    297.03403   -126.12982    103212.94   -29800.924     6190.731   -23610.193 
  311750    304.36172    123.05514    102732.53   -29781.855    6343.4535   -23438.402 
  312000    298.05221   -352.19107     103022.1   -29717.485    6211.9518   -23505.533 
  312250    299.66978    62.877577    101986.62   -29826.493    6245.6648   -23580.828 
  312500    295.70887   -3.1055764    102330.07   -29640.349    6163.1122   -23477.237 
  312750    302.78933    240.78186     102023.5   -29605.762    6310.6819    -23295.08 
  313000     302.4224   -43.488822    102901.84   -29841.661    6303.0344   -23538.627 
  313250    299.08046    248.27184    101936.41   -29763.253    6233.3823   -23529.871 
  313500    300.40191    50.229974    103006.76   -29755.415    6260.9237   -23494.491 
  313750    304.66911    263.49992    103127.59   -29711.157    6349.8599   -23361.297 
  314000    291.23188    456.63792    102302.18   -29884.229    6069.8036   -23814.425 
  314250    301.68967   -220.15505    102523.78   -29709.593    6287.7629    -23421.83 
  314500    297.85184   -294.28136    103238.69   -29757.229    6207.7755   -23549.453 
  314750    300.92232   -93.309081    101813.09   -29777.441    6271.7699   -23505.671 
  315000    297.95922    143.98013    101969.86    -29683.56    6210.0136   -23473.546 
  315250    301.00094   -119.37317    102271.29   -29864.484    6273.4086   -23591.075 
  315500    299.92499   -134.89783    102925.13   -29651.119    6250.9838   -23400.136 
  315750    297.85668   -132.94943    102828.27   -29724.425    6207.8765   -23516.548 
  316000    293.05858   -218.69293    103494.33   -29704.217    6107.8754   -23596.342 
  316250    293.59214   -235.00657    102292.34   -29854.125    6118.9958    -23735.13 
  316500    297.70345   -120.69929    102200.33   -29792.179    6204.6828   -23587.496 
  316750    295.41548    168.33017    101997.52   -29774.493    6156.9974   -23617.495 
  317000    296.76757    211.88692    102000.77   -29865.816    6185.1773   -23680.639 
  317250     302.3221    105.54124    102464.22   -29791.509     6300.944   -23490.565 
  317500    300.93273   -327.52832    103240.09   -29658.306     6271.987   -23386.319 
  317750    298.56893   -31.909332    103369.21   -29677.516    6222.7211   -23454.795 
  318000    299.36532    104.50486    102396.04   -29807.487    6239.3192   -23568.167 
  318250    299.64663   -206.45914     103613.7   -29740.137    6245.1823   -23494.954 
  318500    301.58203   -231.44411    103432.19   -29765.938    6285.5196   -23480.419 
  318750    299.75046   -210.06611    102509.67   -29693.773    6247.3463   -23446.427 
  319000    299.86471   -160.08725    102823.28   -29698.639    6249.7274   -23448.912 
  319250     304.0835   -121.71373     102297.5   -29721.057    6337.6547   -23383.402 
  319500    300.74155    126.60905    102520.43   -29857.179    6268.0024   -23589.176 
  319750    305.96513   -22.848101    102538.12   -29890.107    6376.8714   -23513.236 
  320000    302.63709   -187.75204    102374.14   -29828.763    6307.5089   -23521.254 
  320250     298.6589   -10.910699    102540.07   -29712.694    6224.5962   -23488.098 
  320500    296.49434    192.57368    102240.28   -29825.258    6179.4829   -23645.775 
  320750     295.7617   -444.72826    103273.78   -29823.487    6164.2132   -23659.274 
  321000    302.71496    -37.41462    103113.31   -29750.488     6309.132   -23441.356 
  321250    300.07542    261.75771    102485.49   -29691.902    6254.1191   -23437.783 
  321500    305.20239   -321.88401    103340.57   -29652.621    6360.9744   -23291.647 
  321750    306.56429    282.39306    102649.13   -29764.702    6389.3589   -23375.343 
  322000    300.75955   -268.49899    103370.28   -29791.688    6268.3775   -23523.311 
  322250    302.42569   -253.00031     102663.9   -29633.891    6303.1029   -23330.788 
  322500    304.30866    -508.2628    103038.84   -29799.277    6342.3474    -23456.93 
  322750    301.87138   -26.091989    102810.93    -29735.54    6291.5502    -23443.99 
  323000    298.35921     97.94683    102402.37   -29718.915    6218.3501   -23500.565 
  323250    302.55515    53.706518    102587.47   -29798.317    6305.8012   -23492.516 
  323500    296.49573   -248.40033    102461.89   -29771.552    6179.5118    -23592.04 
  323750    298.79202    59.691484    103130.26   -29674.878    6227.3707   -23447.508 
  324000    302.08943   -258.61433    103734.04   -29645.968    6296.0948   -23349.873 
  324250    301.80178   -57.391386    103425.27   -29715.811    6290.0995   -23425.712 
  324500    301.41886   -87.568468    102704.19   -29804.948    6282.1188   -23522.829 
  324750    300.34456    214.24996    101812.85   -29758.682    6259.7284   -23498.954 
  325000    304.70026    113.99122    102807.67   -29743.544    6350.5091   -23393.035 
  325250    304.54695    17.925242    103622.83   -29694.346    6347.3139   -23347.032 
  325500    300.35539    -103.3755    103213.89   -29745.666    6259.9542   -23485.712 
  325750    297.09523    -188.1577    102959.04   -29701.824    6192.0065   -23509.817 
  326000    298.93202    11.503564    102873.76   -29793.517    6230.2885   -23563.228 
  326250    302.11259    401.27159    102379.31   -29775.372    6296.5773   -23478.795 
  326500    294.27594   -242.13208    103356.14    -29714.41    6133.2473   -23581.163 
  326750    297.69701   -90.871723    103497.81    -29546.76    6204.5486   -23342.211 
  327000     297.9559   -30.072075    102988.57   -29771.668    6209.9444   -23561.723 
  327250    298.44346   -321.50554    103564.34   -29796.609     6220.106   -23576.503 
  327500    298.06451    223.19227    102960.06    -29636.87    6212.2081   -23424.661 
  327750    297.86799   -57.950084    102503.13   -29877.647    6208.1121   -23669.535 
  328000    297.22994    69.205313     102837.5   -29739.646    6194.8141   -23544.831 
  328250    295.94702    367.41361    102399.59   -29844.446    6168.0756    -23676.37 
  328500    295.70725   -93.082874    102854.08   -29784.974    6163.0783   -23621.895 
  328750    299.96072   -411.13316    103335.93   -29684.036    6251.7286   -23432.307 
  329000    298.23873    -168.5718    102603.21   -29919.902    6215.8391   -23704.063 
  329250     296.9651   -146.56577    102115.79   -29849.411    6189.2944   -23660.116 
  329500    294.40468    179.98892    102341.73   -29736.916    6135.9304   -23600.986 
  329750    294.37889    -176.7638    102865.56   -29702.823     6135.393    -23567.43 
  330000    301.75922    285.59162    102124.87    -29787.19    6289.2124   -23497.978 
  330250    303.40552    16.545266    102080.36   -29792.846    6323.5245   -23469.322 
  330500    301.40071     194.4141    102377.89   -29941.774    6281.7405   -23660.033 
  330750    298.47861   -10.958711    102590.88   -29680.157    6220.8386   -23459.318 
  331000    300.69408   -38.785771    102561.77   -29770.461    6267.0131   -23503.448 
  331250     301.3434    236.43198     102761.6   -29822.618    6280.5461   -23542.072 
  331500    301.68374   -104.86896    103381.08   -29712.503    6287.6393   -23424.864 
  331750    302.86821   -165.97449    103342.65   -29771.251    6312.3258   -23458.926 
  332000     300.1911    66.670938    102713.54   -29867.974    6256.5301   -23611.444 
  332250    295.71249   -519.02056    103948.93   -29789.512    6163.1876   -23626.324 
  332500    299.36659   -265.54146    103569.38   -29587.037    6239.3456   -23347.691 
  332750    302.87284    115.42725    102447.66   -29884.144    6312.4223   -23571.722 
  333000    298.61426     -283.806    101922.72    -29784.06    6223.6658   -23560.394 
  333250    300.41422    75.046444    102198.68   -29725.237    6261.1803   -23464.056 
  333500    298.83633   -166.09094    102232.05   -29735.071    6228.2941   -23506.777 
  333750    299.91768   -399.53182    102651.59   -29885.804    6250.8315   -23634.973 
  334000    301.78513    458.95744     101511.3    -29838.39    6289.7526   -23548.638 
  334250    300.93882    77.535637    103006.22   -29713.872    6272.1138   -23441.758 
  334500    298.22172    63.315543    102325.65   -29725.198    6215.4846   -23509.714 
  334750    297.99574    63.694575     102043.5   -29817.677    6210.7748   -23606.902 
  335000    296.10957   -475.54634    103660.56    -29666.63    6171.4635   -23495.166 
  335250    299.85252     29.49417    102503.04   -29683.787    6249.4735   -23434.313 
  335500    300.44432    292.05125    102174.41   -29852.126    6261.8076   -23590.318 
  335750    294.94532   -185.33764    102457.03   -29911.661    6147.1985   -23764.462 
  336000    298.16883    423.00359    102282.91    -29739.64    6214.3822   -23525.258 
  336250    299.45907    155.28312    102881.19   -29760.773    6241.2732     -23519.5 
  336500    302.87755    150.98346    102162.31   -29830.201    6312.5206   -23517.681 
  336750    297.13569     300.8077    102370.52   -29717.994    6192.8497   -23525.145 
  337000    305.73943    36.048713    102997.27   -29680.454    6372.1673   -23308.286 
  337250    298.42956    292.92514    101839.88   -29825.042    6219.8164   -23605.225 
  337500    296.79367    74.945312    102278.08   -29768.131    6185.7215    -23582.41 
  337750    298.14111   -62.800697    103604.34   -29652.981    6213.8044   -23439.176 
  338000      298.259    467.88544    102062.68   -29781.651    6216.2615   -23565.389 
  338250    301.34887    244.17924     101708.3   -29837.807    6280.6601   -23557.147 
  338500    306.20009    132.97518    102366.28   -29622.016    6381.7683   -23240.247 
  338750    294.83741    223.87264    102868.06   -29695.337    6144.9495   -23550.388 
  339000     300.8726   -182.37502    103570.75   -29753.434    6270.7337   -23482.701 
  339250    291.89867   -248.11894     102381.3   -29804.468    6083.7008   -23720.768 
  339500    297.40975   -150.17875    102232.92   -29889.303    6198.5617   -23690.741 
  339750    303.16762    63.285316    102556.46   -29758.823    6318.5662   -23440.257 
  340000    301.83012    58.843981    102250.54   -29755.274    6290.6903   -23464.584 
  340250    302.29271     101.4547    102355.81   -29779.064    6300.3315   -23478.733 
  340500    299.43197    111.74202    102273.51   -29815.335    6240.7085   -23574.627 
  340750    297.49449   -334.58874    101861.11   -29941.412    6200.3279   -23741.084 
  341000    297.34072     13.44274    102689.39   -29667.844     6197.123   -23470.721 
  341250    299.64617    113.55196    101980.49   -29819.764    6245.1727   -23574.591 
  341500    298.10326   -157.48428    103058.61   -29723.977    6213.0157   -23510.962 
  341750    297.77165   -202.39222    102984.73   -29740.256    6206.1043   -23534.151 
  342000    298.03728   -155.70093    102056.03   -29837.781    6211.6404    -23626.14 
  342250    308.94422   -96.678684    102000.23   -29785.157    6438.9611   -23346.195 
  342500    299.81915   -136.90768    102413.42   -29850.782    6248.7778   -23602.005 
  342750    300.49647    201.79468    103216.01    -29707.33    6262.8945   -23444.435 
  343000     295.2523   -158.71556    103407.43   -29673.363    6153.5965   -23519.767 
  343250    295.97588    143.60592    102490.88    -29698.16    6168.6771   -23529.483 
  343500    294.61865    230.16404     102262.6   -29811.139    6140.3901   -23670.749 
  343750    300.06031   -332.04301     102799.5   -29646.169    6253.8041   -23392.365 
  344000    303.60796   -271.17988    102803.47   -29775.041    6327.7436   -23447.297 
  344250    298.08379    128.36483    101871.08   -29948.692    6212.6099   -23736.082 
  344500     297.1769   -39.065114    102403.56   -29899.614    6193.7085   -23705.906 
  344750    299.33886   -30.285302    102321.23   -29731.892    6238.7678   -23493.125 
  345000    301.13426   -91.694824     102069.2   -29784.901    6276.1872   -23508.713 
  345250    299.15479   -836.68473    102478.33   -29794.511    6234.9315   -23559.579 
  345500    295.46267     202.2748    101720.51   -29695.371    6157.9808    -23537.39 
  345750    301.81425   -13.991462     101687.9   -29738.644    6290.3595   -23448.285 
  346000    302.80193    408.82029    100868.08   -29881.276    6310.9445   -23570.332 
  346250    300.51412    103.52078    101615.49   -29754.823    6263.2624   -23491.561 
  346500    305.69264   -266.68403    102366.72   -29807.393    6371.1922     -23436.2 
  346750    298.65769     9.740277    103433.72   -29734.064     6224.571   -23509.493 
  347000    296.85142   -274.85022    102904.25   -29744.169     6186.925   -23557.244 
  347250     300.5759   -34.415962    102996.21   -29747.221    6264.5501   -23482.671 
  347500    300.91984     16.68825    102730.25   -29811.712    6271.7183   -23539.994 
  347750    299.35656    215.41565    102432.56   -29626.652    6239.1368   -23387.515 
  348000    295.66346    365.82591    101880.52   -29689.341    6162.1658   -23527.175 
  348250    301.60966   -57.890252    103463.48   -29663.973    6286.0954   -23377.878 
  348500    301.32533   -314.12699    102906.61   -29725.246    6280.1695   -23445.076 
  348750    295.75336    -143.9421    102528.97    -29753.71    6164.0394   -23589.671 
  349000    300.78015    208.86267    102487.04   -29752.093    6268.8069   -23483.286 
  349250    300.83662   -179.41173    103036.89   -29737.901    6269.9839   -23467.917 
  349500    296.36531    458.29628    102380.86   -29763.649    6176.7936   -23586.856 
  349750    298.02383   -179.40188     102253.3   -29809.222    6211.3601   -23597.862 
  350000    297.55633    8.8283028     102480.3   -29651.655    6201.6165   -23450.039 
  350250    300.69432   -72.805849    102721.05   -29825.471    6267.0181   -23558.453 
  350500    300.09149    165.47028     102709.5   -29700.782    6254.4541   -23446.328 
  350750    296.90116    28.404845    102535.63     -29830.4    6187.9616   -23642.438 
  351000    300.04473   -310.61297    102775.69   -29738.206    6253.4795   -23484.726 
  351250    296.52561    -42.10449    103417.54    -29695.49    6180.1346   -23515.356 
  351500    300.69643    -261.0794    103237.65   -29689.777    6267.0621   -23422.715 
  351750    297.28311    33.044238    102566.78   -29730.358    6195.9222   -23534.435 
  352000     299.4198   -221.26582    102881.29   -29553.629    6240.4546   -23313.174 
  352250    302.69969   -54.147544    103342.91   -29730.608    6308.8135   -23421.794 
  352500     294.1148   -38.574188    102125.09   -29720.193    6129.8888   -23590.304 
  352750    299.61094   -204.45936    101739.68   -29943.198    6244.4385   -23698.759 
  353000    300.53447    76.508823    102114.68   -29772.392    6263.6865   -23508.705 
  353250    300.87059   -499.99635    102709.25   -30038.014    6270.6919   -23767.322 
  353500    299.79998    60.401898    102200.34   -29815.001    6248.3783   -23566.623 
  353750    302.11446   -110.27057    103033.63   -29653.307    6296.6164   -23356.691 
  354000     300.7292    223.87839    102233.58   -29803.262    6267.7451   -23535.517 
  354250    299.42917    89.438037    102788.32   -29710.282    6240.6501   -23469.632 
  354500    298.35208   -165.15503    102943.74   -29725.322    6218.2014   -23507.121 
  354750    299.50888    181.40851    102752.16   -29664.257    6242.3113   -23421.946 
  355000    302.51725    344.96685    102047.56   -29832.891    6305.0111    -23527.88 
  355250    301.09033    32.523528    102368.47   -29823.365    6275.2716   -23548.093 
  355500    299.87638    136.33911       102341   -29870.052    6249.9706   -23620.081 
  355750    300.71115   -217.16044    102951.33   -29753.074    6267.3688   -23485.706 
  356000    296.80873    95.395611    102019.59   -29738.755    6186.0352   -23552.719 
  356250    303.01113    186.27462    101770.44   -29903.699    6315.3046   -23588.395 
  356500    299.06197    27.747493     102549.1   -29720.636    6232.9969   -23487.639 
  356750    297.58308    59.242895    102344.98    -29920.84    6202.1741   -23718.666 
  357000    303.83573    299.01544    102595.15   -29772.758    6332.4908   -23440.268 
  357250     301.5864    327.34873    102945.29   -29693.702    6285.6107   -23408.091 
  357500    296.32118   -118.05129    102828.35    -29690.43    6175.8738   -23514.556 
  357750    301.60052   -161.78872    103244.77   -29779.163    6285.9049   -23493.258 
  358000    300.87398    -118.9526    102314.13   -29748.921    6270.7625   -23478.159 
  358250    298.92059   -58.688552    103185.24   -29707.816    6230.0503   -23477.766 
  358500    297.75886     2.613793    102034.68   -29910.431    6205.8377   -23704.593 
  358750    301.75261   -115.63159    103128.54   -29634.216    6289.0747   -23345.141 
  359000    301.21363   -279.96289    102148.41   -29852.381    6277.8414    -23574.54 
  359250    305.41119   -33.896424    102652.35   -29745.081    6365.3261   -23379.755 
  359500    301.94862   -241.28803    102798.91   -29681.204    6293.1599   -23388.045 
  359750    297.56213   -30.935091    101950.33   -29839.772    6201.7375   -23638.034 
  360000    299.96131    403.09966    101523.06   -29846.126    6251.7409   -23594.385 
  360250    301.62694    248.78758    102659.69   -29704.116    6286.4555    -23417.66 
  360500    300.14745     5.481984     102558.9   -29815.582    6255.6203   -23559.962 
  360750    299.13826   -239.21237    102234.43   -29905.877    6234.5869    -23671.29 
  361000    297.53099   -108.04537    102699.91   -29775.421    6201.0884   -23574.332 
  361250    300.00493   -145.49884    103736.15   -29627.377    6252.6499   -23374.727 
  361500    303.71179    124.36303    102553.52   -29690.693    6329.9077   -23360.786 
  361750    302.14922    102.53204     102119.1   -29750.297    6297.3408   -23452.957 
  362000    301.07668    5.7732696    102810.03    -29740.35    6274.9872   -23465.363 
  362250    297.34815   -33.867238    101945.43   -29782.683    6197.2777   -23585.405 
  362500    298.29369   -56.000109    102541.46   -29825.497    6216.9846   -23608.513 
  362750    300.74254   -157.04182    102760.18   -29646.117     6268.023   -23378.093 
  363000     295.2059    132.00595    103451.97   -29574.833    6152.6295   -23422.204 
  363250    301.65972    -173.0784    102851.44   -29735.722    6287.1388   -23448.583 
  363500      305.765     128.7611    102750.33   -29777.546    6372.7002   -23404.846 
  363750     300.7913   -0.9410915    102900.32   -29709.146    6269.0393   -23440.107 
  364000     299.8818    -181.0123    103137.54   -29823.931    6250.0836   -23573.847 
  364250    299.85188   -93.615759    102010.45   -29813.987    6249.4602   -23564.526 
  364500    302.48101     9.828866    101983.59   -29971.295    6304.2559   -23667.039 
  364750    300.63236   -377.27824    103550.89   -29573.772    6265.7267   -23308.045 
  365000    301.75311    84.664958    103002.13   -29709.379    6289.0851   -23420.294 
  365250      300.274     40.36545    102073.23   -29852.176    6258.2578   -23593.918 
  365500     299.7857    165.27962    102694.91   -29716.276    6248.0808   -23468.195 
  365750    300.90328    102.33044     102594.2   -29677.466    6271.3732   -23406.092 
  366000    297.86117  -0.35021005    103542.62   -29607.061    6207.9701   -23399.091 
  366250    295.22638    264.11172    102700.79   -29790.752    6153.0562   -23637.696 
  366500    301.72633    63.819258    102868.62   -29629.694     6288.527   -23341.167 
  366750    297.95753   -366.05686    101997.52   -29680.854    6209.9784   -23470.876 
  367000    301.58135   -65.766855    101576.76   -29847.284    6285.5053   -23561.779 
  367250    297.73769   -73.022487    102678.01    -29974.09    6205.3964   -23768.693 
  367500    299.92853   -137.32858    102659.71   -29799.006    6251.0577   -23547.948 
  367750    299.95487    12.826393    103457.03   -29737.775    6251.6065   -23486.168 
  368000    300.17424     116.6507    102925.62   -29770.448    6256.1787   -23514.269 
  368250    299.17093    154.96889    102209.14   -29860.126    6235.2679   -23624.858 
  368500    297.55066    26.739402    102071.65    -29774.13    6201.4984   -23572.631 
  368750    304.59192    237.67687    102440.56   -29781.313    6348.2511   -23433.062 
  369000    302.33401    368.23534    102484.05   -29775.491    6301.1923   -23474.299 
  369250    294.65545   -26.262905    103232.77   -29581.208     6141.157   -23440.051 
  369500    294.82553    18.982971    103078.99   -29697.482    6144.7017   -23552.781 
  369750    297.41305   -288.53132    102547.77   -29869.959    6198.6305   -23671.328 
  370000    302.12811   -146.86156    102234.55    -29712.59    6296.9009   -23415.689 
  370250    302.38984    67.020532    101590.46   -29881.765    6302.3557    -23579.41 
  370500    298.74318    113.42706    102567.88   -29754.108    6226.3527   -23527.756 
  370750    298.27669     13.99401    102681.94   -29709.695    6216.6303   -23493.065 
  371000    297.69305    -387.7493    103091.15   -29820.054    6204.4662   -23615.588 
  371250    300.60521    80.795645    102078.29   -29811.509    6265.1607   -23546.348 
  371500    301.32696   -112.44558    102736.29   -29639.642    6280.2034   -23359.439 
  371750    298.92661    301.43063    102075.17   -29676.112    6230.1758   -23445.937 
  372000    303.52644     307.1561    102348.49   -29900.404    6326.0446   -23574.359 
  372250    296.58313    191.47735     102700.2   -29660.458    6181.3333   -23479.125 
  372500    296.24948   -26.264264    103066.69    -29812.77    6174.3795   -23638.391 
  372750    296.22449   -177.72323    103391.53   -29798.154    6173.8587   -23624.296 
  373000    299.16901    64.236811    103296.31    -29672.44    6235.2279   -23437.212 
  373250    302.79051   -232.58118    102927.43   -29777.787    6310.7065    -23467.08 
  373500     297.3284   -42.739724    102662.14   -29847.041    6196.8661   -23650.175 
  373750    296.01993    123.92754    102935.18   -29720.065    6169.5953    -23550.47 
  374000    300.41089    68.144794    102888.29   -29743.432    6261.1109   -23482.321 
  374250    302.85333    3.9437461    102996.68   -29793.176    6312.0159    -23481.16 
  374500    295.98094   -168.80414    102336.89   -29781.797    6168.7827   -23613.015 
  374750    300.83124   -2.2106462    101408.88   -29822.924    6269.8717   -23553.052 
  375000    304.53931    113.59594    101961.06   -29749.105    6347.1547    -23401.95 
  375250    300.76999    154.96399    102491.38   -29771.969    6268.5951   -23503.374 
  375500    301.19145   -275.29539    102085.13   -29871.078    6277.3793   -23593.699 
  375750     300.5468   -23.868196    103005.07   -29773.153    6263.9434   -23509.209 
  376000    305.40136   -39.647102    101992.56   -29792.581    6365.1214   -23427.459 
  376250    297.76486    -172.0137     103652.7   -29780.044    6205.9628   -23574.082 
  376500    294.67048    104.29282    102921.89   -29617.124    6141.4703   -23475.653 
  376750    300.55765   -42.994016    103431.16   -29706.004    6264.1695   -23441.835 
  377000    303.55386    102.49697    102554.16   -29850.546    6326.6161    -23523.93 
  377250    301.70495   -103.48256    102160.89   -29707.026    6288.0815   -23418.944 
  377500    301.74972   -197.63617    103040.02   -29650.279    6289.0145   -23361.265 
  377750    298.52886   -11.714927    102803.95    -29658.36     6221.886   -23436.474 
  378000    301.47916   -152.09641    102541.17   -29836.926    6283.3755    -23553.55 
  378250    300.60829   -83.154983    102876.88   -29717.936    6265.2251   -23452.711 
  378500    300.32602   -178.12617    102217.07   -29781.306    6259.3421   -23521.964 
  378750    303.80126   -103.03983    103204.27   -29710.166    6331.7723   -23378.394 
  379000    296.23853    191.53353    103457.96   -29782.313    6174.1513   -23608.161 
  379250    299.50757     129.7553    102334.81   -29646.165    6242.2841   -23403.881 
  379500    302.30838   -187.23546    102889.71    -29739.75     6300.658   -23439.092 
  379750    298.99995    535.47393    101524.04   -29941.915    6231.7043    -23710.21 
  380000    299.11239   -209.01854    102761.16   -29683.983    6234.0478   -23449.935 
  380250    301.59351   -142.50097     102242.5    -29801.15    6285.7587   -23515.391 
  380500    297.13443    200.35064    102711.44    -29712.65    6192.8235   -23519.827 
  380750    300.41379     12.64166       102647   -29703.014    6261.1712   -23441.843 
  381000    300.57423   -271.28667    102426.18   -29848.797    6264.5151   -23584.282 
  381250    303.84494    113.67149    103341.84   -29580.972    6332.6828   -23248.289 
  381500    305.79192    244.84814    103196.44    -29713.49    6373.2613   -23340.229 
  381750    306.40888    112.48795    101789.22   -29773.974      6386.12   -23387.854 
  382000    298.93348    77.248965    102063.74   -29755.451    6230.3189   -23525.132 
  382250    299.22356    89.253019    102273.77   -29838.118    6236.3647   -23601.753 
  382500    298.18045   -215.95055    102599.09   -29891.228    6214.6244   -23676.604 
  382750    295.75278   -247.46841    102691.32   -29710.017    6164.0274   -23545.989 
  383000    295.83637    230.02576       102018   -29737.498    6165.7696   -23571.728 
  383250    299.52913   -163.12684    102386.18   -29823.345    6242.7334   -23580.612 
  383500    301.36141    215.51515    102600.44   -29748.701    6280.9214    -23467.78 
  383750    303.48934    55.941427    102805.57   -29696.562    6325.2714   -23371.291 
  384000    301.44972    95.196119    102655.26   -29756.692     6282.762    -23473.93 
  384250     297.2342    -281.9361    102746.62   -29843.476    6194.9028   -23648.573 
  384500    299.10722    158.27085     101997.2    -29919.71      6233.94    -23685.77 
  384750    300.53535    368.47525    102870.65     -29653.4    6263.7048   -23389.695 
  385000    301.93612    39.561133    103082.29   -29836.554    6292.8994   -23543.655 
  385250     304.3243   -6.0263124    102141.74   -30010.551    6342.6735   -23667.877 
  385500    294.95988    335.22308    102551.76   -29729.433    6147.5019   -23581.931 
  385750    302.32715    -101.8804    103102.99   -29676.607    6301.0492   -23375.557 
  386000    296.95838   -285.59223    103316.38   -29697.965    6189.1543   -23508.811 
  386250      298.617    295.52814    102196.95   -29671.815     6223.723   -23448.092 
  386500    299.34094    221.36258    102797.87   -29638.322    6238.8111   -23399.511 
  386750    297.16498   -189.45594    102404.89   -29742.591    6193.4602   -23549.131 
  387000    302.76631     130.2546    103072.76   -29665.495    6310.2021   -23355.293 
  387250    297.51051    105.34207    102540.52    -29808.24    6200.6616   -23607.579 
  387500    297.01718    9.8513408    103715.54    -29650.98    6190.3797     -23460.6 
  387750    299.37432    31.559626    102262.91   -29791.437    6239.5068    -23551.93 
  388000    298.02667    239.50296     102280.3   -29734.877    6211.4193   -23523.458 
  388250    297.78613    19.029112    102362.23    -29676.62     6206.406   -23470.214 
  388500    295.26569    447.82713    102070.33   -29692.258    6153.8756   -23538.383 
  388750    299.33432    154.35989    101555.84   -29870.619    6238.6731   -23631.946 
  389000    301.04279    44.548063    102428.27   -29762.009    6274.2808   -23487.729 
  389250    300.18068    61.527884    102745.29   -29673.339     6256.313   -23417.026 
  389500    304.26341    279.08547    102192.26   -29719.849    6341.4044   -23378.444 
  389750    301.01824    431.60144    101519.51   -29801.117    6273.7691   -23527.348 
  390000    295.32202   -72.870698    102237.32   -29553.425    6155.0496   -23398.375 
  390250    301.26829    -102.5446    102211.08   -29705.974    6278.9807   -23426.993 
  390500    298.88504    3.4014532    102032.66    -29829.41    6229.3093     -23600.1 
  390750     301.5492   -128.51225    102516.94   -29894.333    6284.8353   -23609.498 
  391000    302.17578   -275.55261    102364.15   -29805.335    6297.8943   -23507.441 
  391250    302.07753    286.39537    102508.43   -29661.938    6295.8467   -23366.091 
  391500    301.35933    70.177498     102290.9   -29791.599     6280.878   -23510.721 
  391750    299.66124   -138.73124     103452.9   -29770.662    6245.4868   -23525.175 
  392000    297.10296   -92.516441    103784.46   -29580.372    6192.1675   -23388.204 
  392250    296.54597    114.39803    102236.57   -29792.202    6180.5588   -23611.643 
  392500    300.11432   -360.58571    102186.62   -29795.656    6254.9297   -23540.726 
  392750    299.87047   -352.93184    102392.27    -29790.28    6249.8475   -23540.433 
  393000    300.82233    307.00218    101817.42   -29788.036     6269.686    -23518.35 
  393250    301.85748    279.37403    101850.45   -29770.173    6291.2604   -23478.913 
  393500    296.59445    -78.23105    102834.48   -29818.575    6181.5694   -23637.006 
  393750    299.64658   -140.85377    102334.44   -29787.794    6245.1812   -23542.613 
  394000    299.20266    102.87827    102726.02   -29803.547     6235.929   -23567.617 
  394250    296.91622   -318.31993     102677.8    -29754.38    6188.2755   -23566.104 
  394500    301.42845   -250.97603    103133.95   -29710.525    6282.3187   -23428.207 
  394750     303.1796   -205.79319     102143.6    -29767.09    6318.8157   -23448.275 
  395000    292.09113   -301.32082    102249.51   -29848.537    6087.7118   -23760.826 
  395250    297.67234    1.5386042    102463.29   -29673.654    6204.0344    -23469.62 
  395500     301.6774    197.43478     102226.2   -29755.725    6287.5071   -23468.218 
  395750     304.0289     16.59368    103448.28   -29730.181    6336.5168   -23393.664 
  396000    299.86079   -228.21398    103045.61    -29680.49    6249.6457   -23430.844 
  396250    304.43217   -271.70212    103004.71   -29788.664    6344.9218   -23443.742 
  396500    297.27657   -60.954263    102677.05   -29572.521    6195.7858   -23376.735 
  396750    304.36476   0.76281145    102798.05     -29745.5    6343.5167   -23401.983 
  397000    304.66782     378.4822    102062.39   -29773.856     6349.833   -23424.023 
  397250    302.12263    120.95167    102706.53   -29784.839    6296.7867   -23488.053 
  397500    297.22601   -107.29489     102731.9   -29763.632    6194.7322     -23568.9 
  397750    300.73403     245.1016     102522.6   -29707.919    6267.8457   -23440.074 
  398000    292.49114   -186.29776     102197.2   -29725.433    6096.0487   -23629.384 
  398250    300.73068   -117.82952    102811.99   -29639.743    6267.7758   -23371.967 
  398500    298.24028   -320.63115    103172.04   -29604.848    6215.8715   -23388.977 
  398750    305.24746    213.69822    102172.11   -29853.131    6361.9138   -23491.217 
  399000    300.89176   -106.20641    102860.62   -29754.126     6271.133   -23482.993 
  399250    296.53048    54.527332    102558.24   -29804.045    6180.2361   -23623.809 
  399500    299.89061   -96.165625    103374.41   -29583.705    6250.2674   -23333.437 
  399750    303.61255      70.3379    102257.34   -29867.598    6327.8393   -23539.759 
  400000    297.33596   -78.663542    102810.28   -29621.958    6197.0238   -23424.934 
  400250    301.16545   -225.81326    102718.04   -29798.517    6276.8372    -23521.68 
  400500    297.81228    3.4679865    102412.17   -29626.443    6206.9511   -23419.492 
  400750    302.56119    554.59239    102088.54   -29734.528     6305.927   -23428.601 
  401000    299.08449    -209.1517    102731.93   -29830.982    6233.4663   -23597.516 
  401250    301.47818    280.28434    102193.64   -29678.088    6283.3552   -23394.733 
  401500    300.91803    83.403618    102418.32   -29720.223    6271.6806   -23448.542 
  401750    301.21495    99.954349    103526.91   -29755.306     6277.869   -23477.437 
  402000    300.88412   -51.750952    102503.17   -29734.532    6270.9738   -23463.558 
  402250    304.81455   -25.221506    102651.87   -29797.358    6352.8912   -23444.467 
  402500     303.0376   -62.554226    103057.56   -29725.647    6315.8563    -23409.79 
  402750    298.61697   -231.73325    102701.12   -29788.973    6223.7222   -23565.251 
  403000    302.83007    162.42857    101867.73    -29939.27     6311.531   -23627.739 
  403250    301.42402    -197.0198    102463.91   -29959.752    6282.2263   -23677.526 
  403500      300.365    56.702152    102733.61    -29739.35    6260.1545   -23479.195 
  403750     298.7346   -156.51562    102936.78   -29643.635     6226.174   -23417.461 
  404000    301.95638   -159.13389     102260.3   -29804.459    6293.3217   -23511.137 
  404250    293.38795    317.44392     102870.6   -29774.265    6114.7399   -23659.525 
  404500    296.90927    34.988304    102169.44   -29820.455    6188.1307   -23632.324 
  404750     298.4475   -325.08944    102393.05   -29909.799    6220.1902   -23689.608 
  405000    301.09769   -413.56511    103257.25   -29779.782    6275.4251   -23504.357 
  405250    301.55049    -151.2341    102454.17   -29815.776    6284.8621   -23530.914 
  405500    301.19383    159.33759    102504.82   -29806.111    6277.4288   -23528.682 
  405750    296.84541    81.191604    101927.83   -29859.714    6186.7997   -23672.915 
  406000    296.86997    74.731348    102940.49   -29666.352    6187.3116   -23479.041 
  406250     300.2843    99.992133    102347.56   -29784.658    6258.4724   -23526.186 
  406500    306.01094   -121.56076    103004.22   -29720.186    6377.8262    -23342.36 
  406750    300.66673    14.639587    102819.54   -29758.584    6266.4429   -23492.141 
  407000    299.09651   -58.996887    102761.29    -29858.86    6233.7168   -23625.143 
  407250    302.09024    364.09118    102169.92   -29854.042    6296.1116    -23557.93 
  407500    299.27764   -312.48954    102394.79   -29776.772    6237.4919    -23539.28 
  407750     300.3609   -172.86691    102902.52   -29732.761    6260.0689   -23472.692 
  408000    299.52963    -334.9844    103548.13   -29705.433    6242.7439    -23462.69 
  408250    296.76654    7.3299369    102532.44   -29823.402    6185.1561   -23638.246 
  408500    295.32509   -18.625905     102267.4   -29788.525    6155.1136   -23633.412 
  408750     297.0691   -190.42285    102389.56   -29953.244    6191.4618   -23761.782 
  409000     295.9193   -109.99785    102226.34   -29793.672     6167.498   -23626.174 
  409250    296.85833     -104.843    102574.83   -29828.309    6187.0691    -23641.24 
  409500    302.20499   -45.599631    102574.53   -29729.467    6298.5031   -23430.964 
  409750    300.00216   -41.252608    101971.36   -29809.116    6252.5922   -23556.523 
  410000    296.87052    252.04726    100860.14   -30040.728    6187.3231   -23853.404 
  410250    301.44691    200.89102    101624.82   -29817.246    6282.7033   -23534.543 
  410500    299.30593    -374.5127    102744.03   -29829.718    6238.0815   -23591.636 
  410750    302.40571    235.67328    102502.82   -29781.077    6302.6866    -23478.39 
  411000    300.93081    -212.7735       102547    -29577.85    6271.9469   -23305.904 
  411250    299.76554   -160.79667    103010.28   -29797.674    6247.6606   -23550.013 
  411500    298.59201   -3.5808579    102990.43   -29724.697    6223.2021   -23501.495 
  411750    299.53597   -70.860803    102640.79   -29755.552     6242.876   -23512.676 
  412000     293.4692    222.12011    101879.42   -29852.351    6116.4334   -23735.918 
  412250     294.8368     101.5907    102148.51   -29777.601    6144.9367   -23632.664 
  412500    298.69857    121.10553    101752.84   -29788.509    6225.4229   -23563.086 
  412750    299.94106   -164.86881    102674.46   -29784.094    6251.3188   -23532.776 
  413000    297.83917   -234.00672    102420.85   -29697.936    6207.5116   -23490.425 
  413250    305.72129   -11.702491    101881.94   -29682.507    6371.7892   -23310.718 
  413500    299.03728    333.04989    102153.13   -29719.878    6232.4823   -23487.396 
  413750     296.8541    163.99288    102755.42   -29673.138    6186.9809   -23486.157 
  414000    299.68336    -83.78412    103221.47   -29652.779    6245.9478   -23406.831 
  414250    296.13263    6.4104204    102364.57   -29806.848    6171.9441   -23634.904 
  414500    298.53301    257.03601    102247.04   -29846.532    6221.9724   -23624.559 
  414750    297.30847    29.423263    102773.82   -29507.957    6196.4509   -23311.506 
  415000    298.28818   -15.141399    102193.19   -29835.837    6216.8697   -23618.967 
  415250     300.6543   -393.55499    103185.25   -29690.702    6266.1839   -23424.518 
  415500    300.94406   -134.24071    102352.76   -29723.196     6272.223   -23450.973 
  415750    298.68963    203.55872    102397.87   -29817.678    6225.2367   -23592.441 
  416000    298.97307    140.08393    102164.25   -29697.838     6231.144   -23466.694 
  416250    304.16304    -2.285986    102594.04   -29726.292    6339.3125    -23386.98 
  416500    301.40078    77.422342    102492.58   -29924.755    6281.7419   -23643.014 
  416750    301.02395    36.509526    102138.05   -29774.876    6273.8882   -23500.988 
  417000    298.91829    64.732683    102724.86   -29714.861    6230.0023   -23484.859 
  417250    296.05309   -272.61827    103235.65   -29758.334    6170.2863   -23588.048 
  417500    299.61821     160.0046    102164.74   -29822.931      6244.59   -23578.341 
  417750    303.55691    62.739968    102481.43   -29813.802    6326.6797   -23487.122 
  418000    295.30016    251.01281    102155.51   -29733.571     6154.594   -23578.977 
  418250    296.50019    -350.8152    102289.17   -29911.505    6179.6047     -23731.9 
  418500    300.07839    162.22351    102338.59       -29851     6254.181   -23596.819 
  418750    307.70668   -69.709052    102116.69   -29890.655    6413.1685   -23477.486 
  419000    302.66039    236.55177    102202.06   -29729.173    6307.9945   -23421.178 
  419250    307.13443    117.86755    101524.49   -29971.268    6401.2416   -23570.026 
  419500    297.83929   -178.28488    103490.34   -29695.067    6207.5139   -23487.553 
  419750    303.72485    268.60567    102854.52   -29756.662    6330.1798   -23426.482 
  420000    299.69689   -300.12402    103601.45   -29563.942    6246.2299   -23317.712 
  420250    302.55185    137.33535    103050.17   -29604.125    6305.7325   -23298.392 
  420500    299.46169    175.19251     101965.6   -29803.847    6241.3278   -23562.519 
  420750    299.65099   -33.356451    102861.95   -29687.983    6245.2732    -23442.71 
  421000    296.86752   -141.51663    102829.97   -29882.471    6187.2605    -23695.21 
  421250     299.4187   -174.31014    102339.17   -29933.965    6240.4319   -23693.533 
  421500    304.24363   -265.92404    102560.01   -29814.035    6340.9921   -23473.043 
  421750    300.32639   -166.92741    101812.86   -29777.108    6259.3498   -23517.758 
[...]
  552000    294.56828   -373.05434    103164.62   -29686.858    6139.3403   -23547.518 
  552250    300.22107     139.5813    102285.12    -29774.92    6257.1547   -23517.765 
  552500    299.82094    31.571158    102472.17   -29782.486    6248.8153   -23533.671 
  552750    293.17744    93.618334    102502.56   -29802.877    6110.3526   -23692.524 
  553000    304.09525   -41.268644    101784.59   -29825.475    6337.8997   -23487.576 
  553250    304.28843    248.46589     102142.4   -29768.791    6341.9258   -23426.866 
  553500    300.56469   -164.86413    102964.18    -29850.38    6264.3163   -23586.064 
  553750    297.77128    11.064312    102337.75   -29724.627    6206.0966    -23518.53 
  554000    301.70442    198.22006    102966.74    -29795.05    6288.0705   -23506.979 
  554250    300.53907   -35.794498    102855.49   -29599.569    6263.7825   -23335.787 
  554500    299.31455   -30.205785    103330.02    -29694.67    6238.2612   -23456.408 
  554750    298.46224    246.89283    102504.26   -29762.729    6220.4974   -23542.231 
  555000    300.95122    98.704385    102695.45    -29723.51    6272.3724   -23451.138 
  555250    292.68222   -403.35161    102990.41    -29716.83    6100.0314   -23616.799 
  555500    299.44876   -210.31693    102443.92   -29773.056    6241.0582   -23531.997 
  555750    302.43115    -101.3318    101778.18   -29838.733    6303.2168   -23535.516 
  556000    300.12711    14.430678    102705.91   -29734.202    6255.1964   -23479.006 
  556250    299.46805   -10.762663    103231.92   -29680.996    6241.4604   -23439.536 
  556500    298.25348   -216.14513     102611.9   -29792.166    6216.1465   -23576.019 
  556750    297.13285   -116.06152    102369.26   -29807.049    6192.7904   -23614.258 
  557000    302.47434   -105.72891    102728.14   -29655.233    6304.1169   -23351.116 
  557250    302.53833    251.41175    101843.11   -29909.297    6305.4506   -23603.846 
  557500    304.88402   -530.24839    102445.86   -29857.864    6354.3391   -23503.525 
  557750    299.58676   -297.03697    102754.69   -29813.416    6243.9346   -23569.482 
  558000    298.31757    93.413679    101866.38   -29823.273    6217.4822   -23605.791 
  558250    302.11494   -198.45774    102255.34   -29895.777    6296.6264   -23599.151 
  558500    298.55267    -256.0453    102269.67   -29892.524    6222.3822   -23670.142 
  558750    301.19459   -16.473625     101820.5   -29797.619    6277.4447   -23520.174 
  559000    302.98702    243.84735    102235.69   -29842.745    6314.8022   -23527.943 
  559250    298.76508   -92.060122    101962.76   -29967.063    6226.8092   -23740.254 
  559500     299.9311    249.60794    101993.06   -29890.106    6251.1112   -23638.995 
  559750    300.24606    -236.1541    102273.77   -29730.876    6257.6755     -23473.2 
  560000    301.48437    164.86046    102053.69   -29934.743    6283.4841   -23651.259 
  560250    296.71842    98.016999    102034.01   -29846.901    6184.1531   -23662.748 
  560500    301.84275   -127.05696    102291.28   -29833.245    6290.9535   -23542.291 
  560750    296.97289     81.04412    102451.12   -29736.763    6189.4566   -23547.306 
  561000     304.3694   -44.919562    103585.38   -29663.294    6343.6134   -23319.681 
  561250    294.90557    63.761727    102630.02   -29688.698      6146.37   -23542.328 
  561500    296.73134   -275.77369    103339.89   -29790.705    6184.4224   -23606.282 
  561750    300.11618    121.13408    102825.44   -29804.737    6254.9686   -23549.768 
  562000    303.13669    -307.3054     102999.4   -29663.546    6317.9215   -23345.624 
  562250    299.69775   -114.66809    102292.35   -29883.718    6246.2477    -23637.47 
  562500    299.10118   -171.25891    102692.67   -29707.104    6233.8141    -23473.29 
  562750    302.09288   -265.74312    102570.85   -29616.641    6296.1666   -23320.474 
  563000    301.45888    165.42432    102023.43   -29680.775    6282.9529   -23397.822 
  563250    300.32963   -47.823787    102446.33   -29824.014    6259.4173   -23564.597 
  563500    299.41743    243.17917    102790.24   -29702.107    6240.4054   -23461.701 
  563750    300.62964   -33.656421    102414.93    -29896.29    6265.6701    -23630.62 
  564000    300.85708   -164.11286    101890.75   -29758.395    6270.4104   -23487.985 
  564250    302.56544   -148.26544    102816.21   -29863.571    6306.0156   -23557.555 
  564500    297.59325   -194.19006     103236.8   -29665.242    6202.3861   -23462.856 
  564750    298.06694   -373.13082    103326.16   -29682.669    6212.2587    -23470.41 
  565000    302.36751   -252.92285    102218.22   -29832.349    6301.8904   -23530.459 
  565250     299.1283   -193.44624    102893.09    -29719.39    6234.3794   -23485.011 
  565500    300.02161   -188.32012    102499.76   -29879.971    6252.9976   -23626.973 
  565750    296.91617   -10.172241    103234.35   -29583.386    6188.2746   -23395.112 
  566000    296.59034    122.88446    101699.78   -29884.842    6181.4837   -23703.358 
  566250    299.13523    170.55629    102514.83   -29741.058    6234.5237   -23506.535 
  566500     300.8537   -90.704895    103152.61   -29719.665    6270.3397   -23449.325 
  566750    303.95709   -462.72415    103004.23   -29879.319    6335.0202   -23544.299 
  567000    297.59718   -324.62854    103242.32   -29748.957     6202.468   -23546.489 
  567250    302.43585    347.61397    101910.31   -29799.496    6303.3147   -23496.182 
  567500    306.05806    150.34091    101891.83   -29956.529    6378.8082   -23577.721 
  567750    299.22095   -167.74305    102777.02   -29666.701    6236.3103   -23430.391 
  568000    296.66153    -47.08871    102743.11   -29641.013    6182.9674   -23458.046 
  568250    302.26934   -74.232196    102868.95   -29618.732    6299.8444   -23318.888 
  568500    293.30648    419.79304    101492.97   -29871.114     6113.042   -23758.072 
  568750    299.65671     331.9859    102170.37   -29642.552    6245.3924    -23397.16 
  569000    300.51983   -53.895425    102167.47   -29697.292    6263.3814   -23433.911 
  569250    303.81958   -108.13663    102311.17     -29876.6    6332.1542   -23544.446 
  569500    301.63927    121.90582    102799.38   -29637.013    6286.7125     -23350.3 
  569750     300.8071   -173.71418    102526.84   -29837.111    6269.3686   -23567.742 
  570000     298.4531   -18.207866     103313.3   -29707.025    6220.3069   -23486.718 
  570250    293.32065   -353.33077    103471.81    -29764.45    6113.3374   -23651.113 
  570500    305.39078   -28.071315    101446.79   -29783.759    6364.9009   -23418.858 
  570750    302.61415   -161.52082    102512.96   -29716.741    6307.0308   -23409.711 
  571000    308.12931   -408.80596    103441.68   -29735.267    6421.9768    -23313.29 
  571250    300.35727    143.97956     103255.3   -29591.079    6259.9934   -23331.085 
  571500    296.19995   -300.30579    102759.79   -29716.603    6173.3472   -23543.255 
  571750     303.9247      111.031    102704.48   -29683.914     6334.345   -23349.569 
  572000    300.10215   -356.41122    103648.48   -29745.341    6254.6762   -23490.664 
  572250    300.37708   -220.00044    103281.06   -29776.543    6260.4062   -23516.137 
  572500    304.89227    189.40516    102539.65   -29698.093    6354.5111   -23343.582 
  572750    296.88904   -297.72116    102959.77   -29763.367     6187.709   -23575.658 
  573000    294.74674   -226.42206    103737.91   -29752.394    6143.0597   -23609.334 
  573250    301.65491    2.9565439     102736.5   -29758.852    6287.0386   -23471.813 
  573500    296.49599   -193.75926    102363.73   -29746.026    6179.5173   -23566.509 
  573750    296.71508     295.1299    102519.56   -29766.146    6184.0834   -23582.062 
  574000    301.68799   -483.55431    102437.37   -29788.278     6287.728   -23500.551 
  574250    300.59541   -16.116278     102699.9   -29652.705    6264.9565   -23387.749 
  574500     303.0983   -29.634042    101829.92   -29838.712    6317.1213   -23521.591 
  574750    298.59798   -272.07826    102332.34   -29745.708    6223.3264   -23522.381 
  575000    300.71964   -20.849965    102715.83   -29755.749    6267.5457   -23488.204 
  575250    305.55332   -108.64351    102980.01   -29716.336    6368.2884   -23348.047 
  575500    305.85664   -200.35435    103361.41   -29698.433    6374.6102   -23323.823 
  575750    301.68352   -95.602693    103570.92   -29642.098    6287.6348   -23354.463 
  576000    296.67619   -85.102396    102814.31   -29722.336    6183.2729   -23539.063 
  576250    300.57611   -365.39047    103181.73   -29769.564    6264.5543    -23505.01 
  576500    306.30437   -43.561328     102562.8   -29712.657    6383.9418   -23328.715 
  576750    305.38573    306.55017    101891.98   -29750.692    6364.7957   -23385.896 
  577000     299.4982   -62.492316    101945.56    -29859.91    6242.0888   -23617.822 
  577250    299.78725   -152.98565    102182.41   -29749.371    6248.1131   -23501.258 
  577500    297.91483    280.14739    101528.71   -29813.435    6209.0885   -23604.346 
  577750    298.27575    10.004577    102572.63   -29887.479    6216.6107   -23670.868 
  578000    301.51587    358.88407    101619.18   -29858.939    6284.1406   -23574.799 
  578250    299.18064    122.04736    102273.31   -29766.204    6235.4702   -23530.733 
  578500    298.48469   -57.654763     102410.1   -29849.898    6220.9653   -23628.933 
  578750    296.60419     178.0567    103155.26   -29638.057    6181.7723   -23456.285 
  579000    297.64227   -108.04956    103382.43   -29605.472    6203.4078   -23402.064 
  579250    297.61954    253.98047    102938.11    -29764.69     6202.934   -23561.756 
  579500    300.80489   -175.87578    102780.76   -29737.503    6269.3226   -23468.181 
  579750    301.68429   -71.527814    102149.18   -29789.994    6287.6509   -23502.343 
  580000     299.9851    180.98159    102096.77   -29781.313    6252.2366   -23529.077 
  580250    299.96196   -74.581978    102007.85   -29850.864    6251.7544    -23599.11 
  580500    307.03556   -160.18146    102678.86   -29788.154     6399.181   -23388.973 
  580750     297.2325   -293.55799    103488.31   -29513.431    6194.8674   -23318.564 
  581000    299.25497    418.53476    102816.42   -29686.189    6237.0194   -23449.169 
  581250    296.21495   -148.02072     102403.7   -29779.515    6173.6597   -23605.856 
  581500    299.42453    447.02334    101847.14   -29836.704    6240.5533   -23596.151 
  581750    302.44309    232.09701    102610.06   -29778.167    6303.4656   -23474.701 
  582000    297.64306   -5.9867801    102562.31   -29882.388    6203.4242   -23678.964 
  582250    307.17967    79.960112    102522.26   -29761.511    6402.1846   -23359.326 
  582500     300.2108   -231.11617    104068.73   -29657.711    6256.9405    -23400.77 
  582750    296.80603    -240.0877    103482.01   -29675.106     6185.979   -23489.127 
  583000    299.32335   -194.55342    102242.86   -29794.442    6238.4445   -23555.998 
  583250     301.8729    168.32625    102760.15   -29637.358    6291.5818   -23345.777 
  583500    298.56215   -179.41314    103180.39   -29775.999    6222.5798   -23553.419 
  583750     293.3392   -171.75953    103068.22   -29732.196    6113.7239   -23618.472 
  584000    301.21272   -28.609479    103013.36   -29807.525    6277.8224   -23529.703 
  584250    298.03056   -244.39723    102648.96   -29882.261    6211.5005    -23670.76 
  584500    297.59445    141.33522     102654.7    -29839.72    6202.4111   -23637.309 
  584750    300.07574   -101.88618    104014.79   -29591.592    6254.1258   -23337.466 
  585000    300.78166   -125.31804    102780.32   -29811.817    6268.8383   -23542.979 
  585250    301.02408    46.408513    102239.63   -29691.767    6273.8909   -23417.876 
  585500    298.74605   -182.80259    101995.46   -29889.412    6226.4126       -23663 
  585750     300.6255   -89.263151       102549   -29783.849    6265.5838   -23518.265 
  586000    300.10279     217.7257    102790.96   -29837.203    6254.6895   -23582.513 
  586250    299.95057    130.22973    102844.51   -29751.614     6251.517   -23500.096 
  586500     301.3625   -275.78561    102312.17   -29758.614    6280.9441    -23477.67 
  586750     298.4772   -173.01592    102449.53   -29821.674    6220.8092   -23600.865 
  587000    303.77789     84.32617    102862.97   -29629.983    6331.2854   -23298.698 
  587250      299.602    53.704156    103036.79   -29792.713    6244.2521   -23548.461 
  587500    300.73962    153.47886    102475.07   -29700.613    6267.9623   -23432.651 
  587750    294.28703   -107.86874    103369.89   -29690.836    6133.4785   -23557.357 
  588000     301.4361   -144.19262    103008.87   -29606.005    6282.4781   -23323.527 
  588250    301.72433    280.42215    102515.56   -29791.319    6288.4854   -23502.833 
  588500    298.85253   -117.72271    102206.37   -29822.478    6228.6318   -23593.846 
  588750    298.54302   -74.894185    102797.71   -29728.335    6222.1811   -23506.154 
  589000    301.23805    264.61502    102805.59   -29765.873    6278.3504   -23487.523 
  589250    309.77085    17.871085    102465.97    -29637.28    6456.1895   -23181.091 
  589500    305.05323    -305.3311    101928.17   -29845.517    6357.8656   -23487.651 
  589750    299.87529    94.161169    102104.71   -29705.531    6249.9481   -23455.583 
  590000    300.26055    59.011299     102351.8   -29781.129    6257.9774   -23523.151 
  590250    297.66273   -150.60242    103053.35   -29679.046    6203.8343   -23475.212 
  590500    296.08036   -118.55709    102440.25   -29807.046    6170.8547   -23636.192 
  590750     297.9876    278.87173    102400.54   -29774.322     6210.605   -23563.717 
  591000    298.85487    33.005158    102242.73   -29818.395    6228.6806   -23589.715 
  591250    300.80844    136.90136    102362.05   -29779.696    6269.3965     -23510.3 
  591500    303.60607    79.191283    101646.54   -29779.128    6327.7042   -23451.424 
  591750    298.72435    59.778789    102123.83   -29888.526    6225.9602   -23662.566 
  592000    295.22738    -162.6096    102565.88   -29852.664    6153.0771   -23699.587 
  592250    302.18461    -127.8935    103153.64   -29719.686    6298.0785   -23421.607 
  592500    300.16678    103.22259    103254.81   -29656.975    6256.0232   -23400.952 
  592750    301.64273    20.739792    102758.51   -29701.753    6286.7846   -23414.968 
  593000    300.59869   -71.751051    102106.51   -29867.215    6265.0249   -23602.191 
  593250    300.77779    29.703995    102661.32   -29796.343    6268.7578   -23527.585 
  593500    305.01908    32.649637    102099.66   -29868.555     6357.154   -23511.401 
  593750    298.97171    370.36563    102575.23   -29605.873    6231.1157   -23374.758 
  594000    299.78376   -256.03418    103144.47   -29663.187    6248.0403   -23415.147 
  594250    299.20097   -42.696872    102220.46   -29853.179     6235.894   -23617.285 
  594500    307.31581    143.51627     102616.1   -29778.714    6405.0219   -23373.692 
  594750    297.57752    238.75992    103052.48   -29808.592    6202.0583   -23606.533 
  595000    300.65952    259.96058    102598.89   -29829.579    6266.2928   -23563.286 
  595250    294.55534   -169.42226    102439.97     -29746.9    6139.0705   -23607.829 
  595500    302.85947    272.97233    103316.91   -29651.562    6312.1437   -23339.419 
  595750    301.57398    49.447938    102454.84   -29862.129    6285.3518   -23576.777 
  596000    295.48974   -38.397449    102979.62   -29699.239    6158.5452   -23540.694 
  596250    299.76504    174.80244    102188.91   -29790.466    6247.6502   -23542.816 
  596500    296.39709    -113.3067    102166.07   -29743.903    6177.4559   -23566.447 
  596750    294.56748    154.96673    101635.12   -29911.509    6139.3236   -23772.186 
  597000    302.43852    254.56371    101953.56   -29806.678    6303.3704   -23503.307 
  597250    303.07928    278.85653    101979.05   -29910.575    6316.7249   -23593.851 
  597500    300.83223   -22.575299    102742.19   -29700.549    6269.8923   -23430.657 
  597750    295.09905   -70.937946    102039.18   -29914.377    6150.4024   -23763.974 
  598000    295.18102   -116.34692    103484.76   -29641.176    6152.1108   -23489.065 
  598250     304.2766    54.556201    102752.07   -29908.896    6341.6792   -23567.217 
  598500    299.23257   -181.13937    102404.29   -29673.975    6236.5525   -23437.422 
  598750    298.30704    286.68757    101740.57   -30015.878    6217.2629   -23798.615 
  599000     300.8651   -231.94863    102456.32    -29751.71    6270.5774   -23481.132 
  599250    302.13552    86.210666    102487.68   -29733.579    6297.0553   -23436.524 
  599500    304.40389    550.51206    101462.11   -29918.301    6344.3322   -23573.969 
  599750     301.6022    108.61189    102496.01   -29783.706    6285.9399   -23497.766 
  600000     298.8891   -6.6506452    102057.26   -29794.843     6229.394   -23565.449 
  600250    298.30879   -1.6841846    102444.94    -29710.94    6217.2993    -23493.64 
  600500    299.87589      319.064    101956.98   -29673.824    6249.9605   -23423.864 
  600750    297.22696    154.47806    102050.34   -29890.401    6194.7519   -23695.649 
  601000     296.7665    9.6774236    102097.24   -29738.559    6185.1552   -23553.404 
  601250    295.66413    26.222591    102457.84   -29673.606    6162.1797   -23511.427 
  601500    299.31032    218.57053    102453.83    -29767.38    6238.1729   -23529.207 
  601750    303.07146   -95.558612    103040.43   -29811.031     6316.562   -23494.469 
  602000    300.75993     175.8536    102353.78   -29850.278    6268.3854   -23581.893 
  602250    307.03188   -201.31581    102714.91   -29749.804    6399.1043   -23350.699 
  602500    304.43014    70.067795     102320.2    -29774.97    6344.8793   -23430.091 
  602750    295.28765    165.21499    101276.11   -29774.866    6154.3332   -23620.533 
  603000    298.59281    142.18333    102731.58   -29592.969    6223.2187   -23369.751 
  603250    303.24897    -267.4589    102986.25   -29769.478    6320.2616   -23449.216 
  603500    297.24673    98.813763    102896.58   -29801.963    6195.1639   -23606.799 
  603750    296.83724    6.3767882    103074.28    -29642.23    6186.6294   -23455.601 
  604000    299.72202   -171.35798    101729.69   -29823.853    6246.7535     -23577.1 
  604250    298.82362    96.068171    102239.34   -29761.039    6228.0293    -23533.01 
  604500    302.87565   -339.69159    103020.95   -29711.756     6312.481   -23399.275 
  604750    301.32261   -166.22709    102638.79   -29772.142    6280.1127   -23492.029 
  605000    304.93393   -218.14279    102252.02   -29713.763    6355.3793   -23358.383 
  605003    306.65747   -168.35333    102244.75   -29735.835    6391.3009   -23344.534 
Loop time of 47996.7 on 1 procs (1 MPI x 1 OpenMP) for 400000 steps with 10337 atoms

Pair  time (%) = 35476.5 (73.9145)
Bond  time (%) = 496.941 (1.03536)
Kspce time (%) = 3377.25 (7.03643)
Neigh time (%) = 5646.03 (11.7634)
Comm  time (%) = 141.234 (0.294259)
Outpt time (%) = 1.88419 (0.00392566)
Other time (%) = 2856.81 (5.95211)

FFT time (% of Kspce) = 788.372 (23.3436)
FFT Gflps 3d (1d only) = 1.41846 2.14123

Nlocal:    10337 ave 10337 max 10337 min
Histogram: 1 0 0 0 0 0 0 0 0 0
Nghost:    30330 ave 30330 max 30330 min
Histogram: 1 0 0 0 0 0 0 0 0 0
Neighs:    3.77656e+06 ave 3.77656e+06 max 3.77656e+06 min
Histogram: 1 0 0 0 0 0 0 0 0 0

Total # of neighbors = 3776562
Ave neighs/atom = 365.344
Ave special neighs/atom = 2.29119
Neighbor list builds = 44267
Dangerous builds = 0
write_restart   confout-3.data
PPPM initialization ...
  G vector (1/distance) = 0.261964
  grid = 45 18 18
  stencil order = 5
  estimated absolute RMS force accuracy = 0.0322331
  estimated relative force accuracy = 9.70691e-05
  using double precision FFTs
  3d grid and FFT values/proc = 31250 14580
