LAMMPS (24 Apr 2013)
WARNING: OMP_NUM_THREADS environment is not set. (../comm.cpp:100)
  using 1 OpenMP thread(s) per MPI task
# ----------------- Init Section -----------------
units           real
atom_style      full
boundary		p p p
kspace_style	pppm 1.0e-4

# ----------------- Atom Definition Section -----------------
read_restart	confout-0.data
  orthogonal box = (14.8102 2.81562 2.81562) to (248.19 47.1844 47.1844)
  1 by 1 by 1 MPI processor grid
  44200 atoms
  29498 bonds
  14700 angles
  2 = max # of 1-2 neighbors
  2 = max # of 1-3 neighbors
  4 = max # of 1-4 neighbors
  6 = max # of special neighbors

# ----------------- Settings Section -----------------------

group 			spc		type	1 2
44100 atoms in group spc
group			p1_end_atom	id 	44150
1 atoms in group p1_end_atom
group			p2_end_atom	id 	44200
1 atoms in group p2_end_atom

# ----------------- Run Section -----------------
# Write initial structure out
dump            icrd all custom 5 system-1.lammpstrj id mol type x y z ix iy iz
dump_modify     icrd sort id
run             1
WARNING: No fixes defined, atoms won't move (../verlet.cpp:54)
PPPM initialization ...
  G vector (1/distance) = 0.263252
  grid = 90 25 25
  stencil order = 5
  estimated absolute RMS force accuracy = 0.040162
  estimated relative force accuracy = 0.000120947
  using double precision FFTs
  3d grid and FFT values/proc = 97280 56250
Memory usage per processor = 126.91 Mbytes
Step Temp E_pair E_mol TotEng Press 
  100000    200.46588   -144403.18    30.255405   -117961.78    24021.606 
  100001    200.46588   -144403.18    30.255405   -117961.78    24021.606 
Loop time of 0.47571 on 1 procs (1 MPI x 1 OpenMP) for 1 steps with 44200 atoms

Pair  time (%) = 0.43597 (91.6462)
Bond  time (%) = 0.00328398 (0.690332)
Kspce time (%) = 0.0351839 (7.39608)
Neigh time (%) = 0 (0)
Comm  time (%) = 0.000800133 (0.168198)
Outpt time (%) = 0.000241041 (0.0506698)
Other time (%) = 0.000230789 (0.0485147)

FFT time (% of Kspce) = 0.00809779 (23.0156)
FFT Gflps 3d (1d only) = 1.51952 2.9879

Nlocal:    44200 ave 44200 max 44200 min
Histogram: 1 0 0 0 0 0 0 0 0 0
Nghost:    70077 ave 70077 max 70077 min
Histogram: 1 0 0 0 0 0 0 0 0 0
Neighs:    1.46246e+07 ave 1.46246e+07 max 1.46246e+07 min
Histogram: 1 0 0 0 0 0 0 0 0 0

Total # of neighbors = 14624559
Ave neighs/atom = 330.872
Ave special neighs/atom = 2.00851
Neighbor list builds = 0
Dangerous builds = 0

# Reset the timestep
undump          icrd

# Timestep and Neighbour searching
timestep		2.0
neighbor        2.0 bin
neigh_modify	delay 4 every 1 check yes

# Fixes
#fix 			pull p1_end_atom addforce  0.25 0.0 0.0
#fix 			pull p2_end_atom addforce -0.25 0.0 0.0
fix 			shake spc shake 0.0001 10 0 b 1 a 1
  0 = # of size 2 clusters
  0 = # of size 3 clusters
  0 = # of size 4 clusters
  14700 = # of frozen angles
fix   			npt all npt temp 300.0 300.0 100.0 iso 1.0 1.0 1000.0

# Initial velocity
#velocity		all create 300 432567 dist uniform

# Write out thermodynamic information
thermo_style    custom step temp press vol pe ke evdwl ecoul epair
thermo	        250

# Write out trajectory
dump            cxtc all xtc 250 traj-1.xtc

# Write out velocity
#dump 			1 all custom 1 vel_npt.txt vx vy vz

# Checkpoint files
restart         5000 state_cpt-*.data

# Final run command
run             50000
PPPM initialization ...
  G vector (1/distance) = 0.263252
  grid = 90 25 25
  stencil order = 5
  estimated absolute RMS force accuracy = 0.040162
  estimated relative force accuracy = 0.000120947
  using double precision FFTs
  3d grid and FFT values/proc = 97280 56250
Memory usage per processor = 125.578 Mbytes
Step Temp Press Volume PotEng KinEng E_vdwl E_coul E_pair 
  100001    300.36243   -60.050643    459427.89   -144372.93    26411.143    24332.469    561994.85   -144403.18 
  100250    297.58917   -15.610457    459042.41   -144733.52    26167.288    24509.826    561447.69   -144767.13 
  100500     300.0528    -164.7475    460587.56   -144943.72    26383.918    24370.743    561388.41   -144978.56 
  100750    299.63235   -93.682356    460772.66   -144922.38    26346.947    24570.941    561218.94   -144959.08 
  101000     299.6386    -34.24861    459486.13   -144944.39    26347.496    24586.911    561161.51   -144978.58 
  101250    301.18608   -144.89654    461630.53   -144937.24    26483.568    24449.048    561307.89   -144970.53 
  101500    301.69288     20.64905    460998.62   -144856.69    26528.131    24733.348    561106.82   -144895.32 
  101750    297.34857   -17.588079    459379.08   -145102.84    26146.132    24729.756    560871.92   -145143.63 
  102000     298.7641   -191.95047    459909.02   -144769.17    26270.601    24253.334     561690.6    -144801.9 
  102250    298.48885   -124.52961    460705.85   -144786.71    26246.398    24402.133     561503.4   -144821.38 
  102500    302.40493     -89.4055     461095.1   -144552.52    26590.742    24379.633    561767.06   -144589.29 
  102750    299.34685    47.764141    459188.92   -144833.36    26321.843    24624.502    561223.93   -144865.47 
  103000    300.97692    28.152205    458907.16   -144825.05    26465.176    24679.791     561193.5   -144854.24 
  103250    300.42562    160.58895    458914.45   -144620.76      26416.7    24766.494    561311.55   -144652.37 
  103500    299.60464    -15.42437    460143.55   -144762.64    26344.511    24627.469     561320.5   -144786.43 
  103750    301.53967    35.523764     458528.1   -145292.11    26514.659    24734.479    560681.62   -145314.04 
  104000    299.65547    28.817437    458568.03   -145075.96     26348.98    24719.119     560916.9   -145106.02 
  104250     299.3445    15.343028    461994.29   -144673.15    26321.636    24788.036    561263.34   -144702.22 
  104500    300.18043   -2.9418777    460935.64   -144794.46     26395.14    24656.975    561230.16    -144822.9 
  104750    302.74739     95.62584    459430.25   -144754.96    26620.855    24779.196    561167.89   -144787.72 
  105000    297.95372    77.677439    459693.01   -144940.54    26199.343    24891.544    560858.69   -144968.47 
  105250    300.94912   -19.126729    460489.81   -144681.16    26462.732    24576.124    561444.12   -144711.14 
  105500    299.42487   -35.142412    460570.46    -145094.2    26328.703    24721.567    560870.09   -145120.78 
  105750    299.99093    45.358659    459372.07   -144964.42    26378.477    24795.411       560929   -144996.83 
  106000    300.26659     235.1773    458845.25   -144766.47    26402.717    25021.689    560916.74    -144790.4 
  106250    301.69734   -23.542665    459700.14   -145217.16    26528.524    24647.253    560836.84   -145251.46 
  106500    300.42001    -193.1204    460206.18   -144784.25    26416.206    24224.537    561693.47   -144816.03 
  106750    300.86528   -17.520091    459652.87   -144719.99     26455.36    24506.318    561488.38   -144746.55 
  107000     303.9199    19.346096    459234.41   -145148.16    26723.955    24800.447     560761.1   -145175.27 
  107250     299.2331    160.85883    459465.89   -145385.52     26311.84    25250.137    560065.67   -145416.21 
  107500    300.33228    174.20603    459585.79   -145093.75    26408.493    25043.583    560541.25   -145123.23 
  107750    301.11097   -133.06556    460635.53    -145157.9    26476.963    24534.762    561004.76    -145186.6 
  108000    299.66514    114.09056    459041.63   -144916.41     26349.83    24837.969    560946.47    -144946.3 
  108250    300.67318   -243.81116     461424.8   -144809.52    26438.468    24258.469    561637.09   -144840.64 
  108500    303.26588    240.47542    458220.42   -144996.46    26666.446    25135.962    560582.35   -145032.34 
  108750    302.20052   -31.610524    459058.14   -144978.39    26572.768    24608.236    561090.56   -145013.52 
  109000    300.77873    187.28341    459382.05   -145325.54    26447.749    25228.725    560141.51    -145352.8 
  109250    302.34211    65.544324    460202.81   -145438.75    26585.218    24995.469    560282.71   -145470.32 
  109500    300.72567    34.924735    459242.59   -145111.76    26443.084    24821.939    560756.13   -145151.15 
  109750    299.81582    -124.7212    459903.72   -144932.92     26363.08    24383.743    561398.01   -144959.52 
  110000    301.75936    14.662085    459704.06   -145225.19    26533.977    24819.413    560669.22   -145257.88 
  110250    303.90719   -156.14323    461153.33   -145133.86    26722.837     24449.43     561135.2   -145160.43 
  110500    300.50318    5.6822698    460831.75   -145126.25     26423.52    24773.581    560798.55   -145152.66 
  110750    297.64481   -56.276051    459169.76   -145272.74     26172.18    24734.478    560686.09   -145306.82 
  111000    298.60715   -64.166833       459448   -145061.68      26256.8     24589.02    561034.77   -145096.48 
  111250    301.77757    51.217519    459813.72   -144908.34    26535.578    24835.837    560965.93   -144937.45 
  111500    301.07882    51.140386    458569.83   -144730.29    26474.136    24646.425    561325.72   -144766.18 
  111750    299.82444    99.295126    458018.87   -145384.86    26363.838    24974.231    560343.29   -145417.83 
  112000    300.70889    74.521166    459635.07   -144898.38    26441.608    24828.907    560978.85   -144932.17 
  112250    300.63609   -106.87143    462105.63   -144882.88    26435.206    24591.989    561230.16   -144915.08 
  112500    300.07475    83.479302    459648.89   -144819.36    26385.848    24808.663    561063.31   -144847.36 
  112750    303.26625   -148.05013    460552.49   -145028.86    26666.479    24432.911    561254.36   -145054.96 
  113000    301.71026    15.829213    459502.38   -144969.99     26529.66    24661.266    561062.39   -145002.11 
  113250     298.8999    143.44732    459588.47   -144794.11    26282.542    24899.577     560997.1   -144826.48 
  113500    298.03772   -31.597411    460010.12   -144691.82     26206.73    24572.358    561439.83   -144725.82 
  113750    298.80775    -80.17168    459608.78    -144954.4    26274.439    24492.291    561265.73   -144986.38 
  114000    300.78457   -139.01058    459953.07    -144898.3    26448.263    24458.639    561353.96   -144929.73 
  114250    299.76604    25.939224    460885.94   -144999.12    26358.702    24817.881    560893.75   -145027.19 
  114500    298.30332   -66.606063    460706.13   -145033.53    26230.084        24610    561066.76   -145061.16 
  114750    302.03675    57.733182    462492.97   -144817.18    26558.368    24849.801    561037.69   -144844.03 
  115000    302.08303    39.554544    459664.42   -145251.46    26562.438    24926.734    560527.04   -145281.05 
  115250    299.53367   -27.288852    459737.86   -145064.61     26338.27    24667.484    560975.96   -145091.77 
  115500    300.66364   -82.612193    462557.95   -144598.18    26437.629    24534.115    561577.69   -144632.97 
  115750    299.49345    15.903336    460282.51    -144681.7    26334.733    24653.636    561373.66   -144708.49 
  116000    298.76137     42.29614    460072.76   -144776.95    26270.361    24683.786    561233.13    -144815.2 
  116250    301.24625    141.74449    459380.85   -144954.23    26488.858    24885.034     560884.5   -144992.53 
  116500    303.69538    69.826761     460003.4   -145108.81    26704.212    24910.615    560688.28   -145137.67 
  116750    301.71356    52.863063    459582.19   -144920.61    26529.949    24746.306    561037.54   -144954.34 
  117000    300.86188   -34.255533    459226.99    -144866.2    26455.061    24587.127    561254.62    -144895.6 
  117250    299.31635     -163.923    459617.79   -144870.67     26319.16    24322.414    561500.28   -144898.78 
  117500    298.49612   -12.968949    459334.81   -145201.09    26247.037    24726.552    560774.88   -145229.86 
  117750    300.38468    7.8049141    460258.49    -145153.2      26413.1    24840.127    560692.26   -145193.09 
  118000    297.98147    163.81139    460544.67   -144821.91    26201.783    24985.401    560899.61   -144856.54 
  118250    300.01695    100.73411    458954.78   -144710.16    26380.765    24759.086    561234.07   -144738.96 
  118500    301.19274   -23.563563    459685.02   -145043.37    26484.153    24720.759    560934.63    -145073.4 
  118750    298.80379    -46.58759    459420.54   -144872.88    26274.091    24559.746    561262.46   -144901.84 
  119000     297.0297     194.4221    459098.58   -144987.14    26118.094    25034.394    560689.81   -145019.12 
  119250    297.88679    13.769794    461912.12   -144697.06    26193.459    24750.321    561250.67   -144729.07 
  119500     299.0432   -149.70626    461571.66   -144600.41    26295.143    24373.807    561723.02   -144629.23 
  119750    301.54314    81.934967    459854.32   -144946.15    26514.965    24832.041    560937.41   -144970.23 
  120000    299.76479    135.67495    461157.73   -145131.74    26358.593      25164.1     560408.7   -145159.32 
  120250    300.78543    52.243299    460971.64   -144950.61    26448.339    24849.538    560897.23   -144981.46 
  120500    300.64144     137.3636    460218.03   -144848.98    26435.677     24931.51    560918.05   -144885.89 
  120750    301.39423   -101.49237    461784.62   -144496.32     26501.87    24360.593    561833.86   -144522.41 
  121000    299.08783    -16.64828    461448.92    -144952.2    26299.067    24780.417    560986.27   -144984.17 
  121250     299.1173    100.78659    460725.13    -144608.3    26301.659    24800.077    561288.85   -144634.35 
  121500    300.52572    196.97189    459986.69   -144739.56    26425.502    24938.447    561029.38   -144768.69 
  121750    301.90884   -77.687133    462177.84   -145016.82    26547.121    24661.807    561021.94   -145047.45 
  122000    301.05118    55.116798    460981.33   -144903.23    26471.706    24815.921     560982.5   -144933.39 
  122250    302.30081    115.11326    459821.55   -144789.79    26581.587    24880.523    561021.97    -144818.6 
  122500    297.83634      -69.731     458571.2   -145130.43    26189.022    24545.619    561031.97   -145157.39 
  122750    299.96925   -5.2401984    458415.85   -145151.42    26376.571    24639.599    560931.59   -145179.86 
  123000    300.36076    38.603047     460611.2   -144872.15    26410.996     24778.55    561047.84   -144897.74 
  123250    299.47314    10.304445    461517.09   -145103.18    26332.947    24904.707    560688.46   -145127.98 
  123500    298.70885   -15.957993    460049.12   -144851.34    26265.743    24628.731    561219.63   -144880.78 
  123750    298.28938   -175.49388    460730.02   -144838.65    26228.859     24377.26    561466.17    -144876.1 
  124000    298.97165    38.864137    459715.62   -145005.84    26288.851    24778.684    560938.54   -145035.53 
  124250    298.33719     3.681264    459593.04   -145095.22    26233.062    24796.717    560807.31   -145125.52 
  124500    300.85018    41.733872    459567.34   -145441.39    26454.031    24889.085    560387.08   -145476.29 
  124750    301.33655   -80.816514     459723.3   -145269.44    26496.799      24694.4    560723.33   -145300.28 
  125000    299.74748    52.250549    459614.05   -145011.22     26357.07    24855.054    560843.44   -145040.86 
  125250    300.94483    56.688165    459721.32   -145030.18    26462.355    24720.099    560951.53   -145065.39 
  125500    298.57691   -105.84594    461874.26      -144551    26254.141    24456.749    561682.41   -144583.49 
  125750    300.28361    69.163348    459126.32    -145047.4    26404.213    24766.808    560881.75   -145079.46 
  126000     298.6205    67.937882    460471.94   -144998.73    26257.974    24887.315    560837.06   -145026.15 
  126250    298.22021    -121.8669    461276.34   -144935.48    26222.776    24508.246    561252.97   -144969.12 
  126500    303.25818    19.755738    460406.93   -144854.63     26665.77    24629.327    561222.14   -144880.06 
  126750    300.97834    3.6229489    460289.97   -144902.92    26465.301    24722.854    561079.31   -144931.04 
  127000    299.13751     85.58363    458713.21   -145002.65    26303.435    24819.143    560871.66   -145032.92 
  127250    300.15742   -220.79849    460840.95   -144823.82    26393.117    24220.127    561654.25   -144844.68 
  127500    300.44561    56.031356    460440.14   -144579.24    26418.457     24675.95    561452.85   -144605.33 
  127750    299.73527   -23.468834    460664.02   -145171.61    26355.997    24731.923     560782.3   -145200.96 
  128000    301.27197   -81.888138    459812.32   -145035.11     26491.12     24503.64    561159.39   -145059.07 
  128250    302.32814   -94.573528    460030.78   -145235.47    26583.991    24616.408    560855.91   -145272.38 
  128500    297.83499    101.72082    460733.15    -144919.1    26188.903     24945.94    560844.51   -144948.39 
  128750    298.13231    67.142212    458939.07   -144908.65    26215.047    24790.787    561021.35    -144932.1 
  129000    302.51309    9.7337664    460186.95   -144650.82    26600.253    24530.917    561512.12   -144677.87 
  129250    300.61824    60.013677    459648.25   -144716.68    26433.637    24714.602    561274.19    -144746.3 
  129500    300.55473    -5.878207    458337.26   -145020.31    26428.053    24540.894    561141.64   -145049.22 
  129750    300.56763    87.430689    456468.51   -144888.86    26429.187    24567.686    561263.32   -144914.32 
  130000    301.17944    84.744143    457348.34   -144978.64    26482.984    24676.117    561053.27   -145004.96 
  130250    300.03835     28.68352    460607.02   -144762.43    26382.647    24745.883    561192.22   -144790.11 
  130500    298.07605    13.700413    459843.68   -144925.26      26210.1    24736.028    561024.81   -144953.43 
  130750    298.92661   -8.9217644    459611.61   -145025.18    26284.891    24692.076    560996.33   -145055.66 
  131000    299.24226     79.08336    460523.02   -144886.96    26312.646    24938.216     560878.9   -144922.58 
  131250    299.52554    68.942602    460168.79   -145233.42    26337.555    25012.256    560458.41   -145266.57 
  131500    300.01287    79.595973    462131.29   -144807.89    26380.407    24881.843    561018.71   -144833.78 
  131750    301.16585   -24.924347    461924.35   -144954.98    26481.789    24736.254     560997.2   -144983.89 
  132000     298.3822   -18.158523    459570.08   -145172.97     26237.02     24812.06    560718.36   -145199.62 
  132250    299.97869   -197.31717    460033.27   -144963.74    26377.401    24290.551    561448.02   -144994.16 
  132500    298.76995    33.665462    458702.69   -144675.94    26271.115    24570.377    561476.95   -144708.87 
  132750    299.87063   -102.28044    460505.67   -144862.53    26367.899    24541.079    561291.81   -144894.31 
  133000    296.88791    232.61491    458536.15   -144874.67    26105.626    25070.664    560765.17   -144906.44 
  133250    299.87856    -61.19703    459504.45    -145272.4    26368.596    24696.175    560733.98   -145303.27 
  133500    302.04897    112.07548    458804.33   -144937.67    26559.443    24815.428    560947.32   -144962.76 
  133750    301.92302     35.47545    459619.85    -145026.6    26548.368    24840.431    560855.38   -145056.34 
  134000     298.7556    53.194999     460877.4   -144794.75    26269.853    24798.841    561104.15   -144823.48 
  134250    300.47232     122.0327    459012.91   -144951.46    26420.806    24855.155    560906.16   -144982.24 
  134500    299.37449    68.848744    458613.89   -144840.52    26324.273    24721.448    561147.31   -144874.36 
  134750     301.8113    94.289239    459150.45   -144722.97    26538.544    24746.991    561226.85   -144747.94 
  135000    300.01138   -92.749634    460218.82   -144678.14    26380.275    24396.977    561623.13   -144709.38 
  135250    301.57478    191.11004    458045.24   -145182.93    26517.746     25007.39    560518.46   -145210.51 
  135500    300.53461   -13.058877    458842.43   -144852.82    26426.284    24591.657    561263.27   -144877.57 
  135750    299.70667   -126.83859    461140.61   -145015.09    26353.482     24476.27    561221.82   -145037.74 
  136000    299.73496    89.575811    459187.29   -144708.52     26355.97    24675.186     561300.2   -144737.63 
  136250    302.20525    78.864138    458928.16   -145187.76    26573.184    24841.935       560658   -145218.26 
  136500    298.98282   -14.949111    460125.69   -144766.87    26289.833     24673.45    561246.26   -144797.78 
  136750    301.06216     73.54622    458278.31   -144990.19    26472.672    24732.768    560983.84   -145014.97 
  137000     300.8176    10.593106    459298.74   -144719.81    26451.167    24526.213    561450.17   -144749.71 
  137250    298.12024   -72.471454    459665.31   -144599.97    26213.986    24353.655    561746.33   -144626.56 
  137500    298.03256    23.867206    458313.15   -144803.92    26206.276    24587.251    561297.91   -144830.71 
  137750    301.44323   -66.858593    459462.51   -144619.05    26506.179    24326.095    561765.04   -144641.09 
  138000    301.41755    84.040507     459636.3   -144686.96    26503.921    24774.567    561252.91   -144709.45 
  138250    299.77909   -107.65223    461592.56   -145213.41     26359.85    24637.931    560858.75   -145240.18 
  138500     300.3253    58.394101     459197.9   -144965.92    26407.879    24743.304    560985.87   -145001.18 
  138750    299.88615    31.380128    459150.38   -145043.87    26369.264    24779.957    560891.32   -145072.74 
  139000    301.18486    119.84776    460832.24   -144761.54     26483.46    24940.055    561018.34   -144785.84 
  139250    301.12086    66.163095    460160.12    -144599.8    26477.833    24685.371    561413.22   -144626.42 
  139500    299.59411    48.623305    461315.97   -144904.06    26343.584    24863.009     560939.7   -144928.21 
  139750    298.83716   -68.734438    460655.04   -144899.64    26277.025    24580.668    561230.61   -144927.21 
  140000    300.75446    117.42597    459991.14   -144791.91    26445.615    24909.526    561012.12   -144818.41 
  140250    299.58174   -28.423016    461637.15   -144641.89    26342.497    24595.852    561483.66   -144664.08 
  140500    297.61624    116.89389    460821.54   -144631.02    26169.669    24820.638    561261.78   -144654.11 
  140750    301.57988    33.987136    459256.28   -145030.73    26518.195    24751.288    560937.91   -145059.78 
  141000    298.16552   -151.10664    460204.73   -145249.76    26217.967    24551.945    560900.76   -145276.49 
  141250    300.58925     96.69877    460004.51   -145040.33    26431.088    24846.073    560837.71   -145065.33 
  141500    298.33474    5.7617118    458874.93   -144776.81    26232.847    24573.031    561365.04    -144811.4 
  141750    297.16953   -36.681815     458080.7   -144857.56    26130.389    24503.875    561365.64   -144885.18 
  142000    299.84658   -62.783726    459991.89    -144689.3    26365.784    24506.371    561505.77   -144715.62 
  142250    299.31624   -24.432713    460007.67   -144947.36    26319.151    24705.962    561043.46   -144981.17 
  142500    300.72338    83.097505    458252.62   -145248.47    26442.882    24919.204    560541.43   -145281.97 
  142750    298.73861   -25.642855    459000.85   -144928.31    26268.359    24563.215    561205.19    -144956.7 
  143000    299.24567    147.16709    459004.58   -144771.41    26312.946    24863.213    561075.15   -144797.97 
  143250     296.9676   -3.4964855    461381.27   -145169.41    26112.633    24913.496    560640.86   -145202.27 
  143500    300.59185    -111.2709    459745.41   -145253.01    26431.317    24518.384    560928.23      -145280 
  143750    301.90227   -20.212768    461891.99    -144940.7    26546.543    24737.544    561019.03   -144970.42 
  144000    299.16561   -87.513548    463198.64   -145093.72    26305.906    24817.119    560786.27   -145123.78 
  144250    300.45319    45.499267     461584.6   -145074.56    26419.124    25025.833    560585.74   -145111.13 
  144500    298.05868   -55.184401    460738.79   -144898.14    26208.573    24707.947    561081.42   -144924.64 
  144750    297.54122   -122.94511    461221.64   -144908.18    26163.072     24506.86    561294.32   -144939.08 
  145000    300.24942   -51.028911    460113.04   -145305.42    26401.206    24755.758    560657.07   -145326.57 
  145250    303.09666   -15.881229    458936.89   -145329.25    26651.567    24805.014     560576.6   -145354.38 
  145500    299.64688    -95.01507    460229.78   -145137.28    26348.225    24570.926    561020.88   -145158.19 
  145750     299.3794    150.22215     457724.6   -144961.92    26324.705    24830.114    560932.25   -144984.56 
  146000    299.75713    120.86214     458297.7   -144889.47    26357.919    24855.737    560953.33   -144921.57 
  146250    300.87375   -60.022841    459972.52   -144631.85    26456.104    24398.063    561676.19   -144659.99 
  146500    297.72998   -4.0049591    459805.39   -144933.66     26179.67    24673.665    561116.41   -144960.14 
  146750    301.14919     18.27949    459776.07   -144633.82    26480.324    24522.604    561542.45    -144662.5 
  147000    299.64821    26.817143    458290.52   -144817.88    26348.342    24526.659    561363.89   -144843.95 
  147250    299.63516   -22.817784    457629.31   -144940.56    26347.194    24518.386    561251.75   -144974.84 
  147500    298.94082    30.771461    458995.21   -144627.12     26286.14    24588.965    561468.29   -144654.17 
  147750    299.44976   -30.961597    460050.25    -144437.6    26330.891    24429.204    561816.08   -144463.69 
  148000    302.67481    421.45467    457211.32   -144861.54    26614.473    25265.579    560571.87    -144896.1 
  148250    298.92044   -73.703244    460649.79   -144588.98    26284.348     24475.85    561630.85   -144613.56 
  148500    298.85293   -86.508495    461530.91   -144886.57    26278.412    24573.417    561245.33   -144920.81 
  148750    301.92088    90.517608    459890.19   -145155.62     26548.18    24940.602    560599.01   -145188.97 
  149000     298.6086   -1.0704793    459041.69   -145324.34    26256.928    24852.953    560527.73   -145358.21 
  149250    298.09155   -126.45156    459582.21   -145308.09    26211.463    24540.159    560867.94    -145339.4 
  149500    299.57935    166.82602    458318.63   -144732.92    26342.287    24760.354    561215.01   -144754.47 
  149750     300.9184    2.7076249    460168.01    -144992.1    26460.031    24690.916    561021.59   -145020.73 
  150000    300.43364    6.5310346    461000.96   -144656.05    26417.405    24704.656     561349.7    -144683.9 
  150001    300.94326   -7.0448711    460994.85   -144708.26    26462.217    24697.192    561302.93    -144737.3 
Loop time of 22418.8 on 1 procs (1 MPI x 1 OpenMP) for 50000 steps with 44200 atoms

Pair  time (%) = 16204.4 (72.2803)
Bond  time (%) = 0.52157 (0.00232649)
Kspce time (%) = 1788.48 (7.9776)
Neigh time (%) = 2903.9 (12.953)
Comm  time (%) = 52.989 (0.23636)
Outpt time (%) = 0.851058 (0.00379618)
Other time (%) = 1467.67 (6.54661)

FFT time (% of Kspce) = 406.677 (22.7387)
FFT Gflps 3d (1d only) = 1.51284 2.96434

Nlocal:    44200 ave 44200 max 44200 min
Histogram: 1 0 0 0 0 0 0 0 0 0
Nghost:    70149 ave 70149 max 70149 min
Histogram: 1 0 0 0 0 0 0 0 0 0
Neighs:    1.45815e+07 ave 1.45815e+07 max 1.45815e+07 min
Histogram: 1 0 0 0 0 0 0 0 0 0

Total # of neighbors = 14581486
Ave neighs/atom = 329.898
Ave special neighs/atom = 2.00851
Neighbor list builds = 5687
Dangerous builds = 0
write_restart   confout-1.data
PPPM initialization ...
  G vector (1/distance) = 0.263151
  grid = 90 25 25
  stencil order = 5
  estimated absolute RMS force accuracy = 0.0402991
  estimated relative force accuracy = 0.00012136
  using double precision FFTs
  3d grid and FFT values/proc = 97280 56250
