ITEM: TIMESTEP
100000
ITEM: NUMBER OF ATOMS
44200
ITEM: BOX BOUNDS pp pp pp
14.8102 248.19
2.81562 47.1844
2.81562 47.1844
ITEM: ATOMS id mol type x y z ix iy iz 
1 1 1 241.715 5.88249 18.0037 -1 0 0 
2 1 2 241.302 4.98303 18.1455 -1 0 0 
3 1 2 242.705 5.78216 17.9018 -1 0 0 
4 2 1 237.847 45.2473 12.2495 -1 -2 0 
5 2 2 237.265 45.9681 12.6261 -1 -2 0 
6 2 2 238.776 45.5973 12.1299 -1 -2 0 
7 3 1 20.5263 37.4579 8.24525 0 -1 0 
8 3 2 20.9398 37.1683 9.10844 0 -1 0 
9 3 2 20.066 38.3362 8.3743 0 -1 0 
10 4 1 235.662 35.2444 40.329 -1 0 0 
11 4 2 236.234 34.4284 40.2496 -1 0 0 
12 4 2 236.2 36.0534 40.0918 -1 0 0 
13 5 1 222.923 30.7443 11.0205 -1 0 0 
14 5 2 223.331 30.057 10.4201 -1 0 0 
15 5 2 222.225 31.2544 10.517 -1 0 0 
16 6 1 33.3076 16.5339 26.9412 0 0 0 
17 6 2 33.1449 17.5146 26.8326 0 0 0 
18 6 2 33.181 16.0756 26.0614 0 0 0 
19 7 1 242.104 35.4319 17.2445 -1 0 0 
20 7 2 242.748 35.4936 16.4822 -1 0 0 
21 7 2 241.219 35.8041 16.9642 -1 0 0 
22 8 1 243.431 18.3019 8.28085 -1 0 0 
23 8 2 243.179 17.4233 8.68592 -1 0 0 
24 8 2 243.153 19.0431 8.89177 -1 0 0 
25 9 1 15.1822 35.5813 16.1422 0 -1 0 
26 9 2 15.7092 36.4029 15.9248 0 -1 0 
27 9 2 247.703 35.5913 15.6307 -1 -1 0 
28 10 1 21.6632 23.1108 29.527 0 0 0 
29 10 2 22.5267 22.6891 29.8038 0 0 0 
30 10 2 21.0554 23.1761 30.3184 0 0 0 
31 11 1 15.7971 29.9148 37.074 0 -1 0 
32 11 2 15.4962 29.4266 36.2549 0 -1 0 
33 11 2 16.1393 29.2585 37.7464 0 -1 0 
34 12 1 29.803 17.4428 39.649 0 0 0 
35 12 2 29.1261 16.7969 39.2961 0 0 0 
36 12 2 30.4435 16.9609 40.2471 0 0 0 
37 13 1 223.892 25.2848 8.94939 -1 0 1 
38 13 2 224.761 25.0462 8.51453 -1 0 1 
39 13 2 223.599 26.1872 8.63431 -1 0 1 
40 14 1 20.9108 13.9714 40.0814 0 0 0 
41 14 2 21.3699 13.4166 40.7753 0 0 0 
42 14 2 21.5408 14.1476 39.3251 0 0 0 
43 15 1 18.5076 28.9644 44.6949 0 -1 -1 
44 15 2 19.2829 28.4292 45.0302 0 -1 -1 
45 15 2 18.8405 29.8167 44.2914 0 -1 -1 
46 16 1 31.3345 17.1244 11.8205 0 0 0 
47 16 2 32.0434 17.0021 11.1259 0 0 0 
48 16 2 31.0931 18.0927 11.8834 0 0 0 
49 17 1 28.6603 30.3365 9.31008 0 -1 0 
50 17 2 27.8726 30.6508 8.78025 0 -1 0 
51 17 2 29.5037 30.6165 8.85144 0 -1 0 
52 18 1 243.306 29.0574 35.1882 -1 0 0 
53 18 2 242.89 28.1557 35.3032 -1 0 0 
54 18 2 244.142 29.1105 35.7349 -1 0 0 
55 19 1 244.536 9.93012 42.0873 -1 0 -1 
56 19 2 244.925 9.69654 42.9786 -1 0 -1 
57 19 2 244.03 9.14578 41.7284 -1 0 -1 
58 20 1 21.1644 20.6082 37.3928 0 0 0 
59 20 2 20.9082 21.4615 37.847 0 0 0 
60 20 2 20.8534 20.6299 36.4427 0 0 0 
61 21 1 238.976 24.2668 19.2832 -1 0 0 
62 21 2 238.142 24.8087 19.3892 -1 0 0 
63 21 2 239.603 24.7377 18.6625 -1 0 0 
64 22 1 235.692 18.3384 43.7031 -1 0 -1 
65 22 2 235.584 17.3622 43.8914 -1 0 -1 
66 22 2 235.542 18.5085 42.7292 -1 0 -1 
67 23 1 16.3217 10.0988 19.8072 0 0 0 
68 23 2 16.5696 9.44949 20.5262 0 0 0 
69 23 2 16.8621 10.9337 19.9113 0 0 0 
70 24 1 15.065 12.1062 22.9412 0 0 0 
71 24 2 15.0065 12.4254 21.9953 0 0 0 
72 24 2 15.873 11.5267 23.0481 0 0 0 
73 25 1 14.8575 46.4196 43.9079 0 -1 0 
74 25 2 15.3933 46.9536 44.5619 0 -1 0 
75 25 2 14.8308 46.8975 43.0299 0 -1 0 
76 26 1 246.544 14.396 26.0441 -1 0 0 
77 26 2 246.534 13.4393 25.7531 -1 0 0 
78 26 2 246.902 14.9657 25.3042 -1 0 0 
79 27 1 16.2171 9.93227 28.5298 0 0 0 
80 27 2 17.1731 10.2024 28.6441 0 0 0 
81 27 2 15.6907 10.2234 29.3286 0 0 0 
82 28 1 240.659 10.0198 37.8587 -1 0 0 
83 28 2 241.261 9.77082 37.0998 -1 0 0 
84 28 2 240.497 11.0065 37.8457 -1 0 0 
85 29 1 48.2129 46.3304 39.8869 0 -1 -1 
86 29 2 49.1146 46.7487 39.7779 0 -1 -1 
87 29 2 48.2365 45.6808 40.6468 0 -1 -1 
88 30 1 236.277 9.28612 40.726 -1 0 -1 
89 30 2 236.615 9.65963 39.862 -1 0 -1 
90 30 2 235.401 8.82951 40.5721 -1 0 -1 
91 31 1 22.1533 40.443 8.02132 0 -1 0 
92 31 2 22.9438 41.0275 8.20438 0 -1 0 
93 31 2 22.4616 39.5839 7.61272 0 -1 0 
94 32 1 244.794 23.086 22.15 -1 0 0 
95 32 2 244.459 22.9718 21.2148 -1 0 0 
96 32 2 244.026 23.028 22.7885 -1 0 0 
97 33 1 229.426 8.52205 16.1894 -1 0 0 
98 33 2 230.006 9.33424 16.2522 -1 0 0 
99 33 2 229.999 7.70231 16.1944 -1 0 0 
100 34 1 213.302 33.449 25.503 -1 0 0 
101 34 2 213.64 33.2945 26.4313 -1 0 0 
102 34 2 213.323 34.4278 25.2993 -1 0 0 
103 35 1 244.263 4.66944 37.2612 -1 0 -1 
104 35 2 243.529 5.00898 37.8489 -1 0 -1 
105 35 2 244.844 5.43282 36.9791 -1 0 -1 
106 36 1 22.3709 19.1629 30.1091 0 0 0 
107 36 2 22.2561 19.8948 29.4374 0 0 0 
108 36 2 22.4511 19.5594 31.0237 0 0 0 
109 37 1 214.804 17.1097 26.618 -1 0 0 
110 37 2 214.511 16.1851 26.8618 -1 0 0 
111 37 2 215.265 17.5302 27.3994 -1 0 0 
112 38 1 25.0593 26.3099 23.0698 0 0 0 
113 38 2 24.2913 26.9252 23.2471 0 0 0 
114 38 2 25.2043 26.2335 22.0833 0 0 0 
115 39 1 248.135 38.9627 32.7259 -1 -1 0 
116 39 2 248.075 37.9654 32.7672 -1 -1 0 
117 39 2 15.3254 39.23 31.9487 0 -1 0 
118 40 1 40.6675 11.7339 17.4908 0 0 1 
119 40 2 40.0341 12.3757 17.0586 0 0 1 
120 40 2 41.5538 11.7786 17.0297 0 0 1 
121 41 1 231.57 46.8074 22.9623 -1 -1 0 
122 41 2 231.258 3.0833 22.2646 -1 0 0 
123 41 2 231.251 45.8878 22.7332 -1 -1 0 
124 42 1 40.0644 32.5 34.4918 0 0 0 
125 42 2 40.6017 31.6584 34.4367 0 0 0 
126 42 2 40.1515 32.8917 35.4077 0 0 0 
127 43 1 241.956 9.18048 4.81423 -1 0 0 
128 43 2 241.075 8.72067 4.92111 -1 0 0 
129 43 2 242.562 8.61377 4.25601 -1 0 0 
130 44 1 40.3759 32.635 10.2445 0 -1 0 
131 44 2 40.9376 32.6184 9.41732 0 -1 0 
132 44 2 40.9447 32.8831 11.0287 0 -1 0 
133 45 1 245.885 19.6452 7.15507 -1 0 0 
134 45 2 245.101 19.2211 7.60781 -1 0 0 
135 45 2 245.637 20.5642 6.84918 -1 0 0 
136 46 1 231.975 6.95789 12.4328 -1 0 0 
137 46 2 231.127 7.36583 12.7724 -1 0 0 
138 46 2 232.661 6.96131 13.1601 -1 0 0 
139 47 1 212.028 29.097 23.5448 -1 0 0 
140 47 2 211.36 28.3719 23.3787 -1 0 0 
141 47 2 211.684 29.7107 24.2556 -1 0 0 
142 48 1 247.706 20.7754 27.8521 -1 0 0 
143 48 2 247.601 20.7398 26.8583 -1 0 0 
144 48 2 14.8584 19.9865 28.1593 0 0 0 
145 49 1 16.5516 14.3926 46.3924 0 0 -1 
146 49 2 15.7403 14.7263 46.8725 0 0 -1 
147 49 2 16.7182 13.4389 46.6428 0 0 -1 
148 50 1 17.0115 16.5018 22.0013 0 0 0 
149 50 2 17.1317 16.0213 22.87 0 0 0 
150 50 2 17.2223 17.4715 22.1248 0 0 0 
151 51 1 30.03 17.6055 31.3721 0 0 0 
152 51 2 29.9844 17.4569 30.3842 0 0 0 
153 51 2 30.7015 16.9819 31.7723 0 0 0 
154 52 1 25.2467 32.527 24.3108 0 0 0 
155 52 2 25.2469 32.9241 23.3931 0 0 0 
156 52 2 25.6763 31.6244 24.2836 0 0 0 
157 53 1 242.412 13.3001 17.0415 -1 0 0 
158 53 2 241.675 13.9617 16.9041 -1 0 0 
159 53 2 242.272 12.5152 16.4378 -1 0 0 
160 54 1 41.3709 24.2707 32.8992 0 0 0 
161 54 2 42.2799 23.8934 32.7227 0 0 0 
162 54 2 41.3346 25.2169 32.5778 0 0 0 
163 55 1 237.426 22.19 9.77704 -1 0 1 
164 55 2 237.081 21.3392 9.38046 -1 0 1 
165 55 2 236.878 22.9581 9.44629 -1 0 1 
166 56 1 234.565 17.3811 13.7132 -1 0 1 
167 56 2 233.645 17.7377 13.5523 -1 0 1 
168 56 2 234.94 17.7888 14.546 -1 0 1 
169 57 1 32.0063 11.7377 3.01329 0 0 0 
170 57 2 32.9945 11.8338 2.89417 0 0 0 
171 57 2 31.5955 11.4302 46.5238 0 0 -1 
172 58 1 247.719 29.7557 32.4126 -1 0 -1 
173 58 2 15.0811 30.0047 31.7904 0 0 -1 
174 58 2 246.867 29.6652 31.8963 -1 0 -1 
175 59 1 238.756 34.2394 27.6929 -1 0 0 
176 59 2 239.441 33.7219 27.18 -1 0 0 
177 59 2 237.873 34.1744 27.2288 -1 0 0 
178 60 1 241.349 5.37364 27.2683 -1 0 0 
179 60 2 240.556 5.08514 27.8049 -1 0 0 
180 60 2 242.047 5.74845 27.8792 -1 0 0 
181 61 1 25.4615 24.9024 35.2455 0 0 -1 
182 61 2 24.5232 24.7813 34.9215 0 0 -1 
183 61 2 26.0405 24.1801 34.8671 0 0 -1 
184 62 1 16.8613 26.1071 46.0069 0 0 0 
185 62 2 16.6808 25.1337 45.8658 0 0 0 
186 62 2 16.7749 26.3246 46.9791 0 0 0 
187 63 1 43.0492 34.9058 5.64942 0 0 1 
188 63 2 43.7184 34.9614 6.39037 0 0 1 
189 63 2 43.0372 35.7695 5.14559 0 0 1 
190 64 1 27.8185 15.6086 25.9073 0 0 0 
191 64 2 28.6521 15.0728 26.0417 0 0 0 
192 64 2 27.6571 15.7341 24.9285 0 0 0 
193 65 1 58.5354 23.8029 9.35731 0 0 1 
194 65 2 58.9353 24.4833 9.97148 0 0 1 
195 65 2 57.5523 23.7366 9.52814 0 0 1 
196 66 1 234.24 27.7396 8.11712 -1 0 0 
197 66 2 233.919 27.3583 7.25023 -1 0 0 
198 66 2 235.144 28.1472 7.9875 -1 0 0 
199 67 1 20.3584 34.1032 32.8 0 0 0 
200 67 2 20.1855 33.4825 32.0353 0 0 0 
201 67 2 19.9414 33.7333 33.6303 0 0 0 
202 68 1 234.411 28.1715 32.3472 -1 0 0 
203 68 2 235.249 28.252 32.8877 -1 0 0 
204 68 2 233.734 28.8269 32.6819 -1 0 0 
205 69 1 25.0994 34.4443 41.5733 0 0 0 
206 69 2 25.6994 33.6471 41.5062 0 0 0 
207 69 2 25.1877 34.9985 40.7456 0 0 0 
208 70 1 27.648 20.8371 35.2293 0 0 0 
209 70 2 27.8619 20.1903 34.4972 0 0 0 
210 70 2 27.3702 20.3341 36.0477 0 0 0 
211 71 1 213.239 18.2653 23.755 -1 0 0 
212 71 2 212.746 18.9313 23.1955 -1 0 0 
213 71 2 214.146 18.1088 23.3646 -1 0 0 
214 72 1 233.253 27.4911 5.25649 -1 0 0 
215 72 2 233.719 27.8027 4.42842 -1 0 0 
216 72 2 232.355 27.1239 5.01525 -1 0 0 
217 73 1 244.749 2.93747 25.9821 -1 0 0 
218 73 2 245.046 46.3741 25.7751 -1 -1 0 
219 73 2 245.534 3.47764 26.2858 -1 0 0 
220 74 1 234.715 12.9992 29.169 -1 0 -1 
221 74 2 234.845 13.4125 30.0702 -1 0 -1 
222 74 2 233.932 13.426 28.7162 -1 0 -1 
223 75 1 244.794 10.4937 47.0398 -1 1 -1 
224 75 2 245.19 9.65465 3.04442 -1 1 0 
225 75 2 245.022 11.2637 3.26677 -1 1 0 
226 76 1 19.1653 46.6482 15.9511 0 -1 0 
227 76 2 20.1525 46.4889 15.9522 0 -1 0 
228 76 2 18.7186 45.9758 16.5413 0 -1 0 
229 77 1 246.401 30.3887 41.7529 -1 0 0 
230 77 2 247.2 30.9434 41.5229 -1 0 0 
231 77 2 246.081 30.6288 42.6694 -1 0 0 
232 78 1 238.713 22.4946 15.6502 -1 0 0 
233 78 2 238.513 22.101 16.5474 -1 0 0 
234 78 2 237.858 22.6403 15.1519 -1 0 0 
235 79 1 232.575 25.5965 9.97639 -1 0 0 
236 79 2 232.846 25.5298 10.9364 -1 0 0 
237 79 2 232.679 26.5412 9.66543 -1 0 0 
238 80 1 27.8111 13.0514 28.6118 0 0 0 
239 80 2 27.3327 12.8692 27.7528 0 0 0 
240 80 2 28.651 12.5099 28.6469 0 0 0 
241 81 1 20.0602 24.8046 21.1101 0 0 1 
242 81 2 20.2742 25.0292 22.0607 0 0 1 
243 81 2 19.1768 25.2035 20.864 0 0 1 
244 82 1 235.825 28.005 43.2292 -1 0 0 
245 82 2 235.79 27.671 44.1711 -1 0 0 
246 82 2 235.118 28.6988 43.0947 -1 0 0 
247 83 1 28.9977 6.67747 6.60037 0 0 1 
248 83 2 29.6137 5.93766 6.32979 0 0 1 
249 83 2 29.2129 7.49984 6.07372 0 0 1 
250 84 1 229.339 39.0589 16.205 -1 0 1 
251 84 2 229.752 39.6497 15.5123 -1 0 1 
252 84 2 228.602 38.5249 15.7906 -1 0 1 
253 85 1 231.238 27.0019 27.6695 -1 0 0 
254 85 2 232.049 26.4948 27.9598 -1 0 0 
255 85 2 230.508 26.8764 28.3418 -1 0 0 
256 86 1 23.1867 15.3881 33.7174 0 0 0 
257 86 2 23.6353 15.1933 32.8451 0 0 0 
258 86 2 22.6441 16.2239 33.6338 0 0 0 
259 87 1 246.444 23.0912 26.4073 -1 0 0 
260 87 2 246.891 22.612 27.1628 -1 0 0 
261 87 2 247.077 23.1613 25.6362 -1 0 0 
262 88 1 30.5055 31.602 18.9953 0 0 0 
263 88 2 30.4269 32.1974 18.1958 0 0 0 
264 88 2 30.9295 32.1073 19.7469 0 0 0 
265 89 1 233.649 19.6898 11.4903 -1 0 0 
266 89 2 233.646 18.8362 12.0113 -1 0 0 
267 89 2 232.727 19.8776 11.1522 -1 0 0 
268 90 1 220.524 27.5089 15.4197 -1 0 0 
269 90 2 219.803 27.8691 14.8277 -1 0 0 
270 90 2 221.322 28.1106 15.3774 -1 0 0 
271 91 1 19.3373 22.5594 22.415 0 0 0 
272 91 2 19.8481 21.7174 22.2416 0 0 0 
273 91 2 19.3271 23.1196 21.5867 0 0 0 
274 92 1 235.686 15.8239 44.0652 -1 0 -1 
275 92 2 236.587 15.4135 43.9214 -1 0 -1 
276 92 2 235.024 15.4 43.4471 -1 0 -1 
277 93 1 33.7553 36.3672 8.71529 0 0 0 
278 93 2 33.9984 36.5815 9.66132 0 0 0 
279 93 2 33.0237 35.6855 8.70537 0 0 0 
280 94 1 243.117 17.6815 31.2128 -1 0 0 
281 94 2 243.882 17.5032 31.8306 -1 0 0 
282 94 2 243.2 17.1019 30.4022 -1 0 0 
283 95 1 39.4331 31.2478 41.1576 0 0 0 
284 95 2 40.2963 31.7524 41.167 0 0 0 
285 95 2 38.8542 31.5913 40.4181 0 0 0 
286 96 1 247.869 43.7195 44.473 -1 0 0 
287 96 2 247.802 43.2783 43.5781 -1 0 0 
288 96 2 247.948 44.709 44.3516 -1 0 0 
289 97 1 22.2396 35.4049 24.9515 0 0 0 
290 97 2 21.4886 35.3989 25.6118 0 0 0 
291 97 2 22.042 34.7568 24.2161 0 0 0 
292 98 1 22.2252 22.9451 42.1372 0 0 0 
293 98 2 22.2748 22.2746 42.8774 0 0 0 
294 98 2 21.2671 23.1304 41.9189 0 0 0 
295 99 1 245.88 36.3845 24.8477 -1 0 -1 
296 99 2 245.929 36.0977 25.8044 -1 0 -1 
297 99 2 245.519 35.6348 24.2932 -1 0 -1 
298 100 1 30.0176 20.8449 14.6676 0 0 0 
299 100 2 29.5649 21.7364 14.6872 0 0 0 
300 100 2 30.627 20.7631 15.4562 0 0 0 
301 101 1 32.2176 19.9034 27.5739 0 0 0 
302 101 2 32.0914 20.6825 26.9598 0 0 0 
303 101 2 32.794 20.176 28.3442 0 0 0 
304 102 1 236.856 13.0388 7.95165 -1 0 0 
305 102 2 235.964 12.6674 7.69342 -1 0 0 
306 102 2 237.363 13.2903 7.12759 -1 0 0 
307 103 1 27.1312 35.7206 18.4413 0 0 0 
308 103 2 27.2779 36.1073 19.3518 0 0 0 
309 103 2 26.6017 36.3633 17.8876 0 0 0 
310 104 1 27.9659 30.4749 30.4946 0 0 0 
311 104 2 28.8754 30.876 30.6037 0 0 0 
312 104 2 27.8945 30.0519 29.5913 0 0 0 
313 105 1 247.929 21.9896 12.9579 -1 0 0 
314 105 2 246.956 22.027 13.1844 -1 0 0 
315 105 2 248.128 22.6488 12.2328 -1 0 0 
316 106 1 23.1808 24.5255 13.4761 0 0 0 
317 106 2 24.0189 23.9988 13.3334 0 0 0 
318 106 2 23.4133 25.4343 13.8224 0 0 0 
319 107 1 41.6524 15.8404 9.94596 0 0 0 
320 107 2 42.6383 16.0028 9.98729 0 0 0 
321 107 2 41.2929 15.7349 10.8731 0 0 0 
322 108 1 22.6745 32.1284 26.4756 0 0 0 
323 108 2 22.6911 33.0679 26.8177 0 0 0 
324 108 2 22.6523 32.1381 25.4758 0 0 0 
325 109 1 247.449 38.727 4.83597 -1 0 1 
326 109 2 247.517 37.8053 4.454 -1 0 1 
327 109 2 247.026 38.6823 5.74107 -1 0 1 
328 110 1 234.409 41.5494 10.4197 -1 0 1 
329 110 2 235.299 41.7354 10.0031 -1 0 1 
330 110 2 234.085 40.6503 10.1258 -1 0 1 
331 111 1 234.255 14.5821 42.1122 -1 0 0 
332 111 2 234.505 13.7584 41.6031 -1 0 0 
333 111 2 233.663 15.1566 41.5473 -1 0 0 
334 112 1 29.731 5.07345 45.2612 0 1 0 
335 112 2 28.7503 5.08362 45.4569 0 1 0 
336 112 2 30.2425 5.13053 46.1186 0 1 0 
337 113 1 16.7208 22.4925 41.7133 0 0 -1 
338 113 2 16.2209 22.1268 40.9282 0 0 -1 
339 113 2 16.3235 23.37 41.9821 0 0 -1 
340 114 1 242.685 24.2897 15.4631 -1 0 0 
341 114 2 243.329 25.0505 15.5415 -1 0 0 
342 114 2 242.406 24.1859 14.5083 -1 0 0 
343 115 1 19.5397 26.047 11.7831 0 0 0 
344 115 2 19.4953 26.1905 12.7717 0 0 0 
345 115 2 20.4205 25.6377 11.5449 0 0 0 
346 116 1 34.1651 38.2365 4.24826 0 0 0 
347 116 2 34.372 37.5204 4.91488 0 0 0 
348 116 2 33.4786 38.8568 4.6277 0 0 0 
349 117 1 242.346 37.8587 41.9266 -1 0 0 
350 117 2 242.305 38.7346 42.4073 -1 0 0 
351 117 2 242.791 37.986 41.0398 -1 0 0 
352 118 1 15.035 17.939 25.8954 0 0 0 
353 118 2 15.2674 17.515 26.7708 0 0 0 
354 118 2 14.832 17.2267 25.2236 0 0 0 
355 119 1 21.991 29.3043 13.8542 0 0 0 
356 119 2 22.2391 29.5894 14.78 0 0 0 
357 119 2 22.7965 28.9327 13.3927 0 0 0 
358 120 1 238.83 27.0654 21.975 -1 0 0 
359 120 2 239.561 27.7158 21.7683 -1 0 0 
360 120 2 239.206 26.2918 22.4846 -1 0 0 
361 121 1 31.5888 10.8996 41.1523 0 0 0 
362 121 2 31.2928 10.4164 41.9762 0 0 0 
363 121 2 32.4387 11.3914 41.3415 0 0 0 
364 122 1 228.12 26.3603 20.1972 -1 0 0 
365 122 2 227.471 26.7933 20.8228 -1 0 0 
366 122 2 228.537 25.569 20.6445 -1 0 0 
367 123 1 29.0999 40.4341 45.3162 0 0 0 
368 123 2 28.7124 41.3377 45.1339 0 0 0 
369 123 2 29.15 39.9146 44.4631 0 0 0 
370 124 1 241.573 10.9021 16.1707 -1 0 0 
371 124 2 241.734 10.2801 15.4044 -1 0 0 
372 124 2 241.116 10.4084 16.9102 -1 0 0 
373 125 1 243.855 43.6793 30.2412 -1 -1 0 
374 125 2 244.078 44.0947 29.3592 -1 -1 0 
375 125 2 243.966 42.6874 30.1799 -1 -1 0 
376 126 1 241.557 8.91491 18.9465 -1 1 0 
377 126 2 240.752 9.14022 19.495 -1 1 0 
378 126 2 241.49 7.96898 18.6292 -1 1 0 
379 127 1 35.0241 32.8782 11.9281 0 0 0 
380 127 2 34.4813 33.6856 12.1592 0 0 0 
381 127 2 35.978 33.1456 11.7918 0 0 0 
382 128 1 18.5713 28.5609 16.9687 0 0 0 
383 128 2 18.7592 27.579 16.9434 0 0 0 
384 128 2 18.2081 28.8536 16.0842 0 0 0 
385 129 1 28.0845 30.4905 37.1782 0 0 -1 
386 129 2 27.7106 30.0813 38.0106 0 0 -1 
387 129 2 27.3684 31.0088 36.7109 0 0 -1 
388 130 1 227.382 44.3308 25.899 -1 0 0 
389 130 2 227.847 43.475 25.6727 -1 0 0 
390 130 2 228.059 45.0584 26.0114 -1 0 0 
391 131 1 32.6167 20.2458 44.4465 0 0 -1 
392 131 2 32.9532 20.0751 45.3725 0 0 -1 
393 131 2 33.3886 20.2745 43.8114 0 0 -1 
394 132 1 247.635 43.1646 17.1818 -1 0 0 
395 132 2 247.25 42.2422 17.1532 -1 0 0 
396 132 2 248 43.3453 18.0952 -1 0 0 
397 133 1 27.4482 33.4865 7.05412 0 0 0 
398 133 2 26.9321 33.8196 6.26502 0 0 0 
399 133 2 28.421 33.6754 6.91991 0 0 0 
400 134 1 21.5164 33.3105 23.0046 0 0 0 
401 134 2 20.5723 33.0534 23.2111 0 0 0 
402 134 2 21.582 33.5988 22.0493 0 0 0 
403 135 1 30.3624 43.3421 12.954 0 0 1 
404 135 2 31.0804 42.6535 13.0558 0 0 1 
405 135 2 30.3343 43.9177 13.7712 0 0 1 
406 136 1 16.3408 16.1699 38.2485 0 0 0 
407 136 2 17.2891 15.8582 38.3083 0 0 0 
408 136 2 15.9253 16.1498 39.1578 0 0 0 
409 137 1 236.842 5.25433 3.58314 -1 1 1 
410 137 2 237.693 4.83455 3.26984 -1 1 1 
411 137 2 236.485 5.85771 2.86973 -1 1 1 
412 138 1 231.461 43.668 43.8705 -1 0 0 
413 138 2 231.163 43.6843 44.8249 -1 0 0 
414 138 2 232.286 43.1085 43.7885 -1 0 0 
415 139 1 38.7964 18.5676 14.2904 0 0 1 
416 139 2 38.4573 19.2115 13.6046 0 0 1 
417 139 2 38.4185 18.8043 15.1855 0 0 1 
418 140 1 27.8313 34.4107 45.1961 0 0 0 
419 140 2 28.2347 34.0926 44.3382 0 0 0 
420 140 2 26.8355 34.3355 45.1443 0 0 0 
421 141 1 22.5703 30.3589 43.9616 0 0 -1 
422 141 2 22.4388 30.2636 42.9749 0 0 -1 
423 141 2 23.0786 29.5704 44.3078 0 0 -1 
424 142 1 25.2347 5.03281 17.9984 0 1 0 
425 142 2 24.497 5.22838 17.3522 0 1 0 
426 142 2 25.4651 4.06061 17.957 0 1 0 
427 143 1 36.2148 44.9646 10.9823 0 0 0 
428 143 2 36.943 45.6137 10.762 0 0 0 
429 143 2 36.456 44.4624 11.8127 0 0 0 
430 144 1 241.84 28.1765 20.7415 -1 0 -1 
431 144 2 242.642 28.7716 20.6925 -1 0 -1 
432 144 2 241.415 28.1145 19.8383 -1 0 -1 
433 145 1 44.9295 20.3931 41.1812 0 0 -1 
434 145 2 44.1651 21.0313 41.09 0 0 -1 
435 145 2 45.0711 20.1786 42.1476 0 0 -1 
436 146 1 245.57 22.6275 14.3182 -1 0 0 
437 146 2 245.771 22.5837 15.2968 -1 0 0 
438 146 2 244.69 23.082 14.1787 -1 0 0 
439 147 1 29.2066 30.3114 43.698 0 0 0 
440 147 2 30.1307 30.672 43.5717 0 0 0 
441 147 2 28.5951 31.0518 43.9772 0 0 0 
442 148 1 229.226 30.9552 21.7632 -1 0 0 
443 148 2 228.631 31.7147 22.0266 -1 0 0 
444 148 2 230.125 31.0749 22.1838 -1 0 0 
445 149 1 243.934 38.6463 25.2783 -1 0 0 
446 149 2 243.504 38.9997 26.1093 -1 0 0 
447 149 2 243.464 37.8125 24.9887 -1 0 0 
448 150 1 19.2257 18.912 5.64526 0 1 0 
449 150 2 18.3461 18.4432 5.72603 0 1 0 
450 150 2 19.0872 19.8113 5.23043 0 1 0 
451 151 1 22.1971 8.00265 19.604 0 1 0 
452 151 2 21.9182 7.70101 18.6923 0 1 0 
453 151 2 23.1893 8.12536 19.6255 0 1 0 
454 152 1 245.22 36.622 37.7229 -1 0 0 
455 152 2 245.37 35.6716 37.9956 -1 0 0 
456 152 2 245.85 36.8596 36.983 -1 0 0 
457 153 1 24.682 17.9469 29.3598 0 1 0 
458 153 2 25.3934 18.6484 29.401 0 1 0 
459 153 2 23.7825 18.3837 29.3637 0 1 0 
460 154 1 231.137 44.2581 22.1128 -1 0 0 
461 154 2 231.943 43.7283 22.3772 -1 0 0 
462 154 2 230.315 43.705 22.2492 -1 0 0 
463 155 1 36.4472 38.4724 8.16684 0 0 0 
464 155 2 36.1254 37.6321 7.73053 0 0 0 
465 155 2 36.4474 39.216 7.49832 0 0 0 
466 156 1 19.1191 33.2059 18.2262 0 0 0 
467 156 2 19.5257 32.2966 18.1375 0 0 0 
468 156 2 18.2427 33.2275 17.7451 0 0 0 
469 157 1 234.744 33.1666 7.21224 -1 0 0 
470 157 2 234.302 32.4104 6.7303 -1 0 0 
471 157 2 235.719 33.1787 6.98972 -1 0 0 
472 158 1 18.8978 24.9622 41.8163 0 0 -1 
473 158 2 19.3548 24.0798 41.7041 0 0 -1 
474 158 2 18.9796 25.2614 42.767 0 0 -1 
475 159 1 27.8195 33.552 22.3367 0 0 0 
476 159 2 27.9098 32.6306 22.7148 0 0 0 
477 159 2 28.5921 34.1121 22.6355 0 0 0 
478 160 1 31.956 30.9115 42.9363 0 0 -1 
479 160 2 32.6336 31.5661 43.2716 0 0 -1 
480 160 2 32.4218 30.1573 42.4736 0 0 -1 
481 161 1 30.2568 14.177 41.424 0 0 0 
482 161 2 30.9274 14.9019 41.2666 0 0 0 
483 161 2 30.5721 13.5869 42.1671 0 0 0 
484 162 1 19.9196 45.3097 31.7236 0 0 0 
485 162 2 20.0546 46.2963 31.6316 0 0 0 
486 162 2 20.0519 45.0428 32.6782 0 0 0 
487 163 1 25.0385 39.2672 36.6538 0 0 0 
488 163 2 24.4608 38.719 36.049 0 0 0 
489 163 2 25.9733 38.9128 36.6334 0 0 0 
490 164 1 221.283 7.31725 33.3222 -1 1 0 
491 164 2 221.254 6.35766 33.0423 -1 1 0 
492 164 2 220.928 7.4038 34.2529 -1 1 0 
493 165 1 224.317 28.2282 3.82236 -1 0 1 
494 165 2 224.659 29.0977 4.1789 -1 0 1 
495 165 2 224.501 28.1751 2.84085 -1 0 1 
496 166 1 231.966 40.9758 20.5209 -1 0 0 
497 166 2 232.363 40.0751 20.3455 -1 0 0 
498 166 2 232.615 41.5314 21.0401 -1 0 0 
499 167 1 15.7565 28.525 25.4866 0 0 0 
500 167 2 16.1905 29.1341 26.1504 0 0 0 
501 167 2 16.4612 28.0522 24.9576 0 0 0 
502 168 1 43.8837 4.04855 40.373 0 1 0 
503 168 2 42.8956 3.94663 40.4888 0 1 0 
504 168 2 44.3508 3.27287 40.7973 0 1 0 
505 169 1 245.513 19.0911 29.174 -1 1 -1 
506 169 2 245.531 19.2528 30.1606 -1 1 -1 
507 169 2 245.78 19.9269 28.6943 -1 1 -1 
508 170 1 34.0688 25.0776 41.8986 0 1 -1 
509 170 2 34.6877 25.7907 41.5692 0 1 -1 
510 170 2 33.5803 25.4074 42.7065 0 1 -1 
511 171 1 27.9937 8.76528 46.6666 0 1 -1 
512 171 2 27.6138 8.52729 45.7727 0 1 -1 
513 171 2 27.5844 9.61995 46.9859 0 1 -1 
514 172 1 248.142 35.6783 22.0209 -1 0 0 
515 172 2 15.1099 35.6785 22.9585 0 0 0 
516 172 2 14.9704 36.5553 21.5879 0 0 0 
517 173 1 24.8292 16.9761 12.3041 0 1 0 
518 173 2 25.4302 17.5725 11.772 0 1 0 
519 173 2 25.3777 16.2866 12.7772 0 1 0 
520 174 1 243.642 7.47723 3.65849 -1 0 1 
521 174 2 243.802 6.51197 3.45169 -1 0 1 
522 174 2 244.518 7.93468 3.81158 -1 0 1 
523 175 1 24.5589 3.65667 4.37722 0 1 0 
524 175 2 24.1212 47.1416 4.54246 0 0 0 
525 175 2 25.5456 3.52684 4.27972 0 1 0 
526 176 1 25.6794 2.94519 7.04711 0 1 0 
527 176 2 26.2301 3.74015 7.30154 0 1 0 
528 176 2 25.0166 3.20933 6.34648 0 1 0 
529 177 1 227.553 5.55463 10.7501 -1 1 1 
530 177 2 227.491 6.4351 10.2801 -1 1 1 
531 177 2 227.258 5.66209 11.6996 -1 1 1 
532 178 1 238.718 40.3274 44.483 -1 0 0 
533 178 2 238.584 39.4978 45.0249 -1 0 0 
534 178 2 238.603 40.1141 43.5128 -1 0 0 
535 179 1 244.293 37.1621 30.2547 -1 0 0 
536 179 2 244.586 36.6564 31.0658 -1 0 0 
537 179 2 245.088 37.5825 29.818 -1 0 0 
538 180 1 34.2484 45.9158 29.8172 0 0 0 
539 180 2 34.0454 44.9497 29.6579 0 0 0 
540 180 2 34.8673 46.2481 29.1055 0 0 0 
541 181 1 230.851 11.8037 3.63241 -1 1 1 
542 181 2 230.847 12.7744 3.39208 -1 1 1 
543 181 2 231.794 11.4742 3.67262 -1 1 1 
544 182 1 247.54 31.2544 10.1016 -1 0 1 
545 182 2 246.95 30.5661 9.68033 -1 0 1 
546 182 2 246.984 31.8819 10.6468 -1 0 1 
547 183 1 228.069 8.89987 24.3942 -1 1 0 
548 183 2 227.771 8.22878 23.7154 -1 1 0 
549 183 2 228.783 8.49835 24.969 -1 1 0 
550 184 1 23.0356 34.953 33.5441 0 0 -1 
551 184 2 23.0867 35.4795 34.3927 0 0 -1 
552 184 2 22.0896 34.672 33.3826 0 0 -1 
553 185 1 239.515 5.83572 35.8036 -1 1 -1 
554 185 2 239.051 6.35261 35.0848 -1 1 -1 
555 185 2 239.291 4.86534 35.7148 -1 1 -1 
556 186 1 240.65 5.41801 12.191 -1 1 0 
557 186 2 240.116 6.2295 11.9537 -1 1 0 
558 186 2 240.625 5.28041 13.1812 -1 1 0 
559 187 1 26.9857 29.8943 3.5596 0 1 0 
560 187 2 27.758 29.3424 3.24483 0 1 0 
561 187 2 26.6291 29.5128 4.41238 0 1 0 
562 188 1 20.0064 31.3335 45.1599 0 0 -1 
563 188 2 20.8269 30.772 45.0532 0 0 -1 
564 188 2 20.1853 32.063 45.8202 0 0 -1 
565 189 1 230.065 11.3395 21.4844 -1 1 0 
566 189 2 230.303 12.2651 21.1903 -1 1 0 
567 189 2 229.416 11.3877 22.2439 -1 1 0 
568 190 1 218.297 13.1679 39.5486 -1 1 0 
569 190 2 218.772 14.0462 39.4881 -1 1 0 
570 190 2 217.309 13.3217 39.544 -1 1 0 
571 191 1 243.25 7.3687 11.1204 -1 1 0 
572 191 2 243.858 7.8936 11.7159 -1 1 0 
573 191 2 242.43 7.10679 11.6291 -1 1 0 
574 192 1 244.089 18.1757 42.0738 -1 1 0 
575 192 2 243.569 17.467 42.5508 -1 1 0 
576 192 2 243.749 19.0768 42.3433 -1 1 0 
577 193 1 24.594 5.83707 38.1259 0 1 0 
578 193 2 24.6922 5.00474 38.6714 0 1 0 
579 193 2 25.4163 5.97234 37.5732 0 1 0 
580 194 1 28.8004 35.798 41.1188 0 0 0 
581 194 2 29.6269 35.446 41.5581 0 0 0 
582 194 2 28.1566 36.1069 41.8189 0 0 0 
583 195 1 223.846 22.5102 9.46761 -1 0 1 
584 195 2 223.672 23.4385 9.13885 -1 0 1 
585 195 2 224.83 22.3334 9.46173 -1 0 1 
586 196 1 241.702 31.5674 34.7717 -1 0 0 
587 196 2 241.628 32.2167 35.5285 -1 0 0 
588 196 2 242.456 30.9348 34.9483 -1 0 0 
589 197 1 17.6598 28.9773 6.00298 0 -1 0 
590 197 2 18.6008 28.7856 5.72413 0 -1 0 
591 197 2 17.5463 29.9615 6.13872 0 -1 0 
592 198 1 244.324 44.0607 23.7889 -1 -1 0 
593 198 2 244.621 44.2712 24.7201 -1 -1 0 
594 198 2 244.631 43.142 23.5405 -1 -1 0 
595 199 1 14.9235 16.2377 6.9846 0 0 0 
596 199 2 247.315 16.3887 7.01712 -1 0 0 
597 199 2 15.196 15.6497 7.7462 0 0 0 
598 200 1 21.7269 41.0903 19.8857 0 -1 0 
599 200 2 22.2778 41.9143 20.0183 0 -1 0 
600 200 2 22.3298 40.2986 19.7873 0 -1 0 
601 201 1 21.344 15.214 28.5617 0 0 0 
602 201 2 21.5597 15.8638 27.8328 0 0 0 
603 201 2 21.9294 14.4081 28.4738 0 0 0 
604 202 1 25.6808 34.0204 35.1399 0 -1 0 
605 202 2 26.5117 34.3987 34.7319 0 -1 0 
606 202 2 25.4917 33.1235 34.7401 0 -1 0 
607 203 1 48.4148 45.5015 26.345 0 -1 0 
608 203 2 47.851 44.679 26.42 0 -1 0 
609 203 2 48.0423 46.2161 26.9371 0 -1 0 
610 204 1 28.3696 9.98999 20.4219 0 0 0 
611 204 2 27.4817 9.97189 19.9623 0 0 0 
612 204 2 28.2324 10.0776 21.4086 0 0 0 
613 205 1 29.9306 22.2316 8.49619 0 0 1 
614 205 2 29.3184 22.7611 7.90891 0 0 1 
615 205 2 29.7107 21.2594 8.41643 0 0 1 
616 206 1 224.457 9.33789 3.40178 -1 0 0 
617 206 2 223.816 9.48353 47.0166 -1 0 -1 
618 206 2 224.106 9.78062 4.22712 -1 0 0 
619 207 1 244.114 10.1885 19.1593 -1 0 0 
620 207 2 243.824 9.69753 19.9809 -1 0 0 
621 207 2 243.652 9.80291 18.3605 -1 0 0 
622 208 1 240.006 41.219 22.55 -1 -1 0 
623 208 2 239.115 41.0329 22.9634 -1 -1 0 
624 208 2 240.314 40.4132 22.0438 -1 -1 0 
625 209 1 41.1658 26.5784 31.2997 0 0 0 
626 209 2 41.5033 25.8617 30.6894 0 0 0 
627 209 2 40.5128 27.1546 30.8081 0 0 0 
628 210 1 30.6604 6.56941 21.0299 0 0 1 
629 210 2 30.4808 5.75452 21.581 0 0 1 
630 210 2 30.324 7.37848 21.5117 0 0 1 
631 211 1 25.399 46.882 46.3192 0 -1 -1 
632 211 2 24.9129 46.0378 46.0933 0 -1 -1 
633 211 2 24.7725 3.28903 46.2439 0 0 -1 
634 212 1 245.07 12.7924 21.2792 -1 0 0 
635 212 2 244.624 13.0926 20.4358 -1 0 0 
636 212 2 246.051 12.6895 21.1192 -1 0 0 
637 213 1 20.8858 8.71069 45.9132 0 0 -1 
638 213 2 20.918 7.82947 46.3848 0 0 -1 
639 213 2 21.5534 9.33247 46.3227 0 0 -1 
640 214 1 232.316 18.8328 14.2671 -1 0 0 
641 214 2 231.784 19.6397 14.0106 -1 0 0 
642 214 2 232.066 18.5489 15.1926 -1 0 0 
643 215 1 43.9494 44.087 33.0959 0 -1 0 
644 215 2 44.6114 44.8362 33.0745 0 -1 0 
645 215 2 43.8417 43.711 32.1755 0 -1 0 
646 216 1 232.389 44.4197 18.774 -1 -1 0 
647 216 2 232.998 43.7029 19.114 -1 -1 0 
648 216 2 231.504 44.3517 19.2347 -1 -1 0 
649 217 1 31.065 36.0236 6.79993 0 0 0 
650 217 2 30.7269 35.9223 7.73556 0 0 0 
651 217 2 31.5856 35.2092 6.54359 0 0 0 
652 218 1 18.5318 12.3439 16.2926 0 0 0 
653 218 2 18.2964 12.3055 15.3214 0 0 0 
654 218 2 18.31 11.4695 16.7241 0 0 0 
655 219 1 27.1193 32.7794 18.8171 0 0 0 
656 219 2 27.8365 32.683 18.1269 0 0 0 
657 219 2 27.0392 33.7401 19.0826 0 0 0 
658 220 1 33.7811 40.5659 14.7868 0 0 0 
659 220 2 32.8756 40.5888 14.363 0 0 0 
660 220 2 34.0019 39.627 15.0507 0 0 0 
661 221 1 227.625 22.6784 20.867 -1 0 1 
662 221 2 227.19 22.3759 21.7149 -1 0 1 
663 221 2 228.363 23.3185 21.0812 -1 0 1 
664 222 1 20.9859 16.6205 9.03332 0 0 1 
665 222 2 20.0361 16.326 8.92787 0 0 1 
666 222 2 21.2448 17.1951 8.25694 0 0 1 
667 223 1 26.2592 17.6387 18.3263 0 0 0 
668 223 2 27.0149 17.1414 17.9002 0 0 0 
669 223 2 25.5718 16.988 18.6489 0 0 0 
670 224 1 44.6742 33.1142 4.30402 0 0 1 
671 224 2 44.242 33.6578 5.02346 0 0 1 
672 224 2 45.6488 33.3341 4.26007 0 0 1 
673 225 1 36.9747 11.6248 25.8284 0 0 0 
674 225 2 36.3555 11.1998 25.1682 0 0 0 
675 225 2 36.4526 11.9367 26.6222 0 0 0 
676 226 1 220.408 29.4286 22.747 -1 0 0 
677 226 2 221.37 29.355 22.4872 -1 0 0 
678 226 2 219.88 28.7225 22.2748 -1 0 0 
679 227 1 238.154 45.3467 42.2329 -1 -1 -1 
680 227 2 238.167 44.4203 41.8566 -1 -1 -1 
681 227 2 239.068 45.5855 42.5617 -1 -1 -1 
682 228 1 242.228 21.6007 4.08446 -1 0 0 
683 228 2 242.633 22.2161 4.76108 -1 0 0 
684 228 2 242.588 21.8199 3.17753 -1 0 0 
685 229 1 214.949 42.6868 41.5459 -1 0 -1 
686 229 2 215.626 43.0249 42.1999 -1 0 -1 
687 229 2 215.417 42.2478 40.7789 -1 0 -1 
688 230 1 16.327 21.2927 31.4474 0 0 0 
689 230 2 17.1869 20.7841 31.4918 0 0 0 
690 230 2 15.5591 20.6534 31.4875 0 0 0 
691 231 1 23.67 32.1645 9.23128 0 -1 0 
692 231 2 23.5121 33.1213 8.98705 0 -1 0 
693 231 2 23.1965 31.5718 8.57978 0 -1 0 
694 232 1 16.2416 3.25633 20.2527 0 0 0 
695 232 2 15.7608 47.0077 20.8753 0 -1 0 
696 232 2 16.2367 2.86985 19.3304 0 0 0 
697 233 1 246.57 39.6185 42.6325 -1 -1 0 
698 233 2 246.692 39.364 41.6731 -1 -1 0 
699 233 2 245.886 39.0215 43.0514 -1 -1 0 
700 234 1 22.4026 23.0365 19.5844 0 0 0 
701 234 2 22.5085 23.7179 20.3087 0 0 0 
702 234 2 23.2284 22.4752 19.5315 0 0 0 
703 235 1 25.3871 14.6338 43.3554 0 0 0 
704 235 2 26.3825 14.6295 43.4517 0 0 0 
705 235 2 25.1342 14.2018 42.4897 0 0 0 
706 236 1 37.0451 25.9974 17.492 0 0 1 
707 236 2 37.8261 26.4343 17.0459 0 0 1 
708 236 2 37.2534 25.0339 17.6604 0 0 1 
709 237 1 20.5327 17.159 30.2761 0 0 0 
710 237 2 20.7693 16.4093 29.6582 0 0 0 
711 237 2 21.3325 17.7436 30.4125 0 0 0 
712 238 1 247.079 18.8295 41.6449 -1 0 0 
713 238 2 247.789 19.0438 40.9743 -1 0 0 
714 238 2 246.27 19.3892 41.4644 -1 0 0 
715 239 1 16.8867 23.4719 46.1459 0 0 -1 
716 239 2 16.8661 22.4737 46.0896 0 0 -1 
717 239 2 17.7506 23.7649 46.5554 0 0 -1 
718 240 1 31.8804 43.3483 44.473 0 -1 -1 
719 240 2 32.5945 43.8167 43.9527 0 -1 -1 
720 240 2 31.4015 44.009 45.0511 0 -1 -1 
721 241 1 211.235 30.106 45.0239 -1 0 -1 
722 241 2 210.969 29.839 45.9503 -1 0 -1 
723 241 2 212.092 29.6524 44.7791 -1 0 -1 
724 242 1 242.375 42.5177 21.7437 -1 -1 0 
725 242 2 241.475 42.1702 22.0075 -1 -1 0 
726 242 2 243.066 42.1683 22.3766 -1 -1 0 
727 243 1 241.766 15.6142 38.5658 -1 0 -1 
728 243 2 240.954 16.1591 38.3588 -1 0 -1 
729 243 2 242.03 15.0887 37.757 -1 0 -1 
730 244 1 245.864 3.65854 7.84228 -1 0 0 
731 244 2 245.526 4.59059 7.97057 -1 0 0 